/*--------------------------------*- C++ -*----------------------------------*\
| =========                 |                                                 |
| \\      /  F ield         | OpenFOAM: The Open Source CFD Toolbox           |
|  \\    /   O peration     | Version:  5.x                                   |
|   \\  /    A nd           | Web:      www.OpenFOAM.org                      |
|    \\/     M anipulation  |                                                 |
\*---------------------------------------------------------------------------*/
/*   Windows 32 and 64 bit porting by blueCAPE: http://www.bluecape.com.pt   *\
|  Based on Windows porting (2.0.x v4) by Symscape: http://www.symscape.com   |
\*---------------------------------------------------------------------------*/
FoamFile
{
    version     2.0;
    format      ascii;
    class       volScalarField;
    location    "10";
    object      p;
}
// * * * * * * * * * * * * * * * * * * * * * * * * * * * * * * * * * * * * * //

dimensions      [0 2 -2 0 0 0 0];

internalField   nonuniform List<scalar> 
10000
(
73.3769
65.6176
60.3306
57.7715
55.9107
54.1015
52.4021
50.8836
49.5466
48.3714
47.3373
46.4233
45.6063
44.8629
44.1712
43.5135
42.8761
42.2496
41.6277
41.0066
40.3842
39.7593
39.1317
38.5015
37.8692
37.2351
36.5999
35.9641
35.3283
34.693
34.0587
33.426
32.7956
32.1679
31.5435
30.9229
30.3064
29.6944
29.0868
28.4838
27.8853
27.2915
26.7023
26.1177
25.5377
24.9625
24.392
23.8264
23.2656
22.7099
22.1591
21.6133
21.0722
20.5358
20.0038
19.4761
18.9524
18.4329
17.9176
17.4068
16.9006
16.3992
15.9024
15.4102
14.9223
14.4388
13.9593
13.4841
13.0129
12.5459
12.083
11.6242
11.1693
10.7183
10.271
9.82735
9.38723
8.95066
8.51752
8.08786
7.66167
7.23914
6.82029
6.40528
5.99409
5.58672
5.18289
4.78236
4.38481
3.99009
3.59797
3.20843
2.82138
2.43695
2.05496
1.6758
1.29888
0.925318
0.554296
0.18344
70.2019
64.2589
59.8268
57.5369
55.8139
54.0986
52.4407
50.9224
49.5687
48.3773
47.334
46.4166
45.5996
44.8574
44.1672
43.5106
42.874
42.248
41.6264
41.0055
40.3832
39.7584
39.131
38.5009
37.8687
37.2347
36.5997
35.964
35.3283
34.6931
34.059
33.4264
32.7959
32.1682
31.5438
30.9231
30.3065
29.6944
29.0868
28.4838
27.8854
27.2916
26.7024
26.1178
25.5378
24.9626
24.392
23.8264
23.2656
22.7098
22.159
21.6132
21.0721
20.5358
20.0038
19.4761
18.9524
18.4329
17.9175
17.4067
16.9004
16.399
15.9023
15.4101
14.9222
14.4387
13.9592
13.4839
13.0128
12.5458
12.0829
11.624
11.1691
10.7181
10.2708
9.82721
9.38709
8.95052
8.51737
8.08769
7.66148
7.23893
6.82007
6.40505
5.99386
5.5865
5.1827
4.78221
4.38469
3.98998
3.59786
3.2083
2.82123
2.43678
2.05474
1.67561
1.29849
0.925282
0.554404
0.183072
68.6186
63.7186
59.7782
57.5229
55.8037
54.1366
52.5195
51.0139
49.655
48.4531
47.3998
46.4744
45.6507
44.9024
44.2067
43.545
42.9038
42.2736
41.6482
41.0239
40.3985
39.771
39.1412
38.509
37.875
37.2395
36.6032
35.9665
35.33
34.6941
34.0594
33.4263
32.7954
32.1673
31.5426
30.9217
30.305
29.6928
29.0852
28.4822
27.8838
27.2901
26.7009
26.1164
25.5364
24.9613
24.3908
23.8251
23.2644
22.7087
22.1579
21.6121
21.0711
20.5348
20.0029
19.4752
18.9515
18.432
17.9167
17.4058
16.8996
16.3982
15.9015
15.4093
14.9215
14.438
13.9585
13.4833
13.0121
12.5451
12.0822
11.6233
11.1684
10.7174
10.27
9.82641
9.38628
8.9497
8.51655
8.08687
7.66067
7.23812
6.81927
6.40426
5.99309
5.58575
5.18197
4.78149
4.384
3.98931
3.59722
3.20768
2.82063
2.4362
2.05415
1.6751
1.29781
0.925175
0.55423
0.182047
67.6188
63.1369
59.5106
57.3549
55.688
54.0875
52.5309
51.0651
49.7279
48.5366
47.4875
46.5621
45.7358
44.9833
44.2825
43.6154
42.9688
42.3332
41.7026
41.0732
40.443
39.811
39.1768
38.5407
37.903
37.2642
36.625
35.9856
35.3468
34.7089
34.0723
33.4375
32.8051
32.1758
31.5499
30.9279
30.3103
29.6973
29.0889
28.4853
27.8863
27.2922
26.7026
26.1178
25.5376
24.9622
24.3915
23.8257
23.2648
22.7089
22.158
21.6121
21.071
20.5346
20.0026
19.4748
18.951
18.4315
17.9161
17.4052
16.899
16.3976
15.9008
15.4086
14.9208
14.4373
13.9578
13.4826
13.0113
12.5443
12.0813
11.6224
11.1673
10.7162
10.2688
9.82513
9.38495
8.94834
8.51517
8.08549
7.6593
7.23678
6.81796
6.40297
5.99181
5.58448
5.18069
4.78021
4.38273
3.98808
3.59602
3.20654
2.81955
2.4352
2.05318
1.67429
1.29691
0.924904
0.554279
0.18118
66.826
62.5099
59.1097
57.0991
55.5225
54.0003
52.5115
51.0953
49.7904
48.6187
47.5807
46.6605
45.8349
45.0802
44.3753
43.7031
43.0509
42.4095
41.773
41.1379
40.5022
39.8649
39.2258
38.585
37.943
37.3004
36.6576
36.015
35.3733
34.7329
34.094
33.4572
32.8231
32.1921
31.5647
30.9414
30.3226
29.7084
29.099
28.4944
27.8946
27.2997
26.7095
26.1241
25.5434
24.9676
24.3965
23.8302
23.2689
22.7127
22.1614
21.6152
21.0737
20.537
20.0047
19.4767
18.9527
18.433
17.9176
17.4066
16.9003
16.3987
15.9018
15.4095
14.9215
14.4378
13.9583
13.4828
13.0115
12.5443
12.0812
11.622
11.1668
10.7155
10.2679
9.82399
9.3837
8.94699
8.51377
8.08406
7.65788
7.23538
6.81658
6.40159
5.99043
5.58306
5.17921
4.77867
4.38116
3.98651
3.59451
3.2051
2.81821
2.434
2.05206
1.6734
1.29597
0.924553
0.554413
0.180496
66.2085
61.9869
58.7478
56.8737
55.3919
53.9416
52.5116
51.14
49.866
48.7147
47.6893
46.7759
45.9527
45.1971
44.4888
43.8117
43.1536
42.506
41.8632
41.2219
40.5801
39.9371
39.2926
38.6469
38.0003
37.3535
36.7068
36.0609
35.4161
34.7729
34.1316
33.4927
32.8566
32.2239
31.595
30.9702
30.3499
29.7344
29.1236
28.5178
27.9169
27.3209
26.7297
26.1434
25.5618
24.9852
24.4134
23.8465
23.2845
22.7276
22.1756
21.6286
21.0864
20.5491
20.0161
19.4874
18.963
18.4429
17.927
17.4157
16.909
16.407
15.9096
15.4168
14.9283
14.4442
13.9641
13.4883
13.0165
12.5489
12.0853
11.6257
11.17
10.7182
10.2702
9.82589
9.38524
8.94827
8.51481
8.08493
7.65862
7.23603
6.81713
6.40204
5.99073
5.58317
5.17911
4.77838
4.38071
3.98597
3.59393
3.20456
2.81773
2.43363
2.05176
1.67331
1.29579
0.924864
0.555182
0.180486
65.7621
61.6056
58.4655
56.6866
55.2791
53.8828
52.4923
51.1501
49.897
48.7601
47.744
46.8357
46.0141
45.2572
44.5454
43.8634
43.1994
42.5455
41.8964
41.249
40.6016
39.9534
39.3042
38.6544
38.0042
37.3543
36.705
36.0569
35.4104
34.7658
34.1235
33.4839
32.8474
32.2145
31.5855
30.9607
30.3404
29.7249
29.1142
28.5085
27.9076
27.3118
26.7208
26.1348
25.5536
24.9773
24.4059
23.8393
23.2777
22.721
22.1693
21.6226
21.0806
20.5434
20.0106
19.4822
18.9581
18.4384
17.923
17.412
16.9057
16.4039
15.9067
15.414
14.9256
14.4415
13.9615
13.4857
13.014
12.5463
12.0827
11.6229
11.1671
10.7152
10.267
9.82265
9.38198
8.945
8.51161
8.08183
7.65569
7.23325
6.81451
6.39953
5.98828
5.5807
5.17659
4.7758
4.37813
3.98342
3.59151
3.20231
2.81572
2.43189
2.05026
1.67213
1.29463
0.924238
0.55509
0.18021
65.4695
61.3513
58.2927
56.6129
55.2967
53.9657
52.6162
51.2998
50.0631
48.9363
47.9255
47.0185
46.1948
45.4326
44.713
44.021
43.3457
42.6798
42.0185
41.3591
40.7002
40.0412
39.3821
38.7232
38.0649
37.4076
36.7519
36.0981
35.4466
34.7978
34.1519
33.5093
32.8703
32.2354
31.6047
30.9785
30.3571
29.7406
29.1291
28.5226
27.9212
27.3248
26.7335
26.1472
25.5659
24.9895
24.418
23.8515
23.2899
22.7333
22.1816
21.6347
21.0927
20.5553
20.0224
19.494
18.9699
18.4502
17.9349
17.4241
16.9177
16.4159
15.9185
15.4255
14.9368
14.4523
13.972
13.4958
13.0237
12.5556
12.0914
11.6312
11.1748
10.7224
10.2737
9.8289
9.38784
8.95049
8.51683
8.08684
7.66054
7.23794
6.81906
6.40388
5.99239
5.5845
5.18006
4.77894
4.38098
3.98604
3.59398
3.20473
2.81814
2.43436
2.05276
1.67474
1.29704
0.926827
0.557493
0.181615
65.4041
61.0957
57.901
56.2141
54.9716
53.7262
52.4495
51.1902
49.9961
48.8991
47.9086
47.0156
46.2015
45.4458
44.73
44.0396
43.3643
42.6969
42.0331
41.3704
40.7077
40.0447
39.3814
38.7183
38.0559
37.3948
36.7355
36.0784
35.4239
34.7724
34.1242
33.4797
32.8391
32.2029
31.5711
30.9441
30.3219
29.7048
29.0928
28.4859
27.8842
27.2877
26.6963
26.1101
25.529
24.953
24.382
23.816
23.255
22.6989
22.1478
21.6017
21.0603
20.5236
19.9915
19.4639
18.9407
18.4221
17.9078
17.398
16.8927
16.3918
15.8953
15.4031
14.9152
14.4315
13.9519
13.4764
13.0049
12.5374
12.0738
11.6141
11.1583
10.7063
10.2582
9.81389
9.37336
8.93657
8.50351
8.07414
7.64848
7.22651
6.80824
6.39361
5.98262
5.57514
5.1711
4.77034
4.37277
3.97823
3.58665
3.19789
2.81187
2.42864
2.04763
1.67015
1.29303
0.92315
0.554221
0.180483
66.7349
62.0667
58.5229
56.6036
55.2172
53.8981
52.5975
51.3403
50.1566
49.0699
48.0866
47.197
46.3821
45.6215
44.897
44.1947
43.505
42.8219
42.1419
41.4633
40.7854
40.1081
39.4319
38.7574
38.0851
37.4154
36.7489
36.0859
35.4267
34.7715
34.1206
33.4741
32.8324
32.1955
31.5635
30.9366
30.315
29.6984
29.0872
28.4811
27.8804
27.2848
26.6946
26.1094
25.5294
24.9543
24.3844
23.8194
23.2594
22.7042
22.154
21.6085
21.0679
20.5317
20.0003
19.4733
18.9508
18.4326
17.919
17.4096
16.9048
16.4042
15.9079
15.4158
14.928
14.4443
13.9647
13.4891
13.0176
12.5499
12.0862
11.6264
11.1704
10.7182
10.2699
9.8254
9.38473
8.94775
8.5146
8.08509
7.65937
7.23725
6.81887
6.40406
5.99289
5.58516
5.1809
4.77989
4.38214
3.98742
3.59574
3.2069
2.82091
2.4376
2.0568
1.67874
1.3026
0.929761
0.557764
0.185933
70.2039
64.2605
59.8291
57.538
55.8133
54.0973
52.4396
50.9216
49.5681
48.3769
47.3336
46.4162
45.5993
44.8571
44.1669
43.5104
42.8739
42.2479
41.6264
41.0055
40.3832
39.7584
39.131
38.5009
37.8687
37.2348
36.5997
35.964
35.3284
34.6932
34.059
33.4264
32.7959
32.1682
31.5438
30.9231
30.3066
29.6945
29.0869
28.4839
27.8854
27.2917
26.7024
26.1178
25.5378
24.9626
24.3921
23.8264
23.2656
22.7099
22.1591
21.6132
21.0722
20.5359
20.0039
19.4762
18.9524
18.4329
17.9176
17.4067
16.9004
16.399
15.9022
15.41
14.9222
14.4386
13.9592
13.4839
13.0127
12.5458
12.0829
11.624
11.1691
10.7182
10.2709
9.82725
9.38712
8.95055
8.51739
8.0877
7.66149
7.23894
6.82007
6.40506
5.99387
5.58652
5.18272
4.78222
4.3847
3.98998
3.59786
3.2083
2.82122
2.43677
2.05473
1.6756
1.29849
0.925278
0.554399
0.183066
66.9093
62.6922
59.253
57.3678
55.7934
54.1555
52.5299
51.0132
49.6479
48.4426
47.3871
46.4598
45.6346
44.8856
44.1897
43.5285
42.8883
42.2595
41.6358
41.0132
40.3896
39.7639
39.1357
38.5051
37.8725
37.2384
36.6031
35.9674
35.3317
34.6965
34.0623
33.4297
32.7991
32.1713
31.5467
30.9259
30.3091
29.6968
29.0891
28.4859
27.8874
27.2935
26.7042
26.1196
25.5395
24.9642
24.3936
23.8278
23.2669
22.7111
22.1602
21.6143
21.0732
20.5369
20.0049
19.4772
18.9535
18.4339
17.9185
17.4075
16.9012
16.3996
15.9028
15.4106
14.9227
14.4391
13.9597
13.4844
13.0132
12.5462
12.0833
11.6244
11.1695
10.7185
10.2712
9.82753
9.38741
8.9508
8.51764
8.08792
7.66171
7.2391
6.82022
6.40514
5.99394
5.58653
5.18272
4.7822
4.38472
3.99001
3.59792
3.20835
2.8213
2.43684
2.0548
1.67574
1.29809
0.926487
0.554569
0.181674
65.3604
62.2369
59.3367
57.4419
55.8355
54.2297
52.6447
51.1493
49.787
48.5742
47.5064
46.5653
45.7265
44.9647
44.2573
43.586
42.9371
42.3007
41.6704
41.0422
40.4138
39.7839
39.1522
38.5185
37.8834
37.2471
36.6102
35.973
35.3362
34.7002
34.0653
33.432
32.801
32.1728
31.5478
30.9266
30.3096
29.6971
29.0892
28.486
27.8874
27.2935
26.7042
26.1195
25.5395
24.9642
24.3936
23.8278
23.2669
22.7111
22.1602
21.6143
21.0732
20.5369
20.0049
19.4772
18.9534
18.4338
17.9184
17.4074
16.901
16.3994
15.9025
15.4103
14.9224
14.4389
13.9594
13.4841
13.013
12.546
12.083
11.6241
11.1691
10.7181
10.2707
9.82705
9.38693
8.95031
8.51714
8.0874
7.66119
7.23856
6.81966
6.40454
5.99333
5.58589
5.18208
4.78156
4.38413
3.98946
3.59744
3.20792
2.82094
2.43652
2.05444
1.67541
1.29736
0.926928
0.553779
0.179672
64.3835
61.758
59.1324
57.2857
55.6996
54.1522
52.6315
51.1844
49.8528
48.6578
47.5992
46.6613
45.8217
45.0565
44.3442
43.6671
43.012
42.3693
41.7328
41.0986
40.4644
39.8291
39.1923
38.554
37.9146
37.2745
36.6342
35.9941
35.3547
34.7164
34.0796
33.4446
32.812
32.1824
31.5563
30.934
30.3161
29.7027
29.0941
28.4902
27.891
27.2967
26.707
26.122
25.5417
24.9662
24.3954
23.8294
23.2683
22.7123
22.1612
21.6151
21.0739
20.5374
20.0054
19.4775
18.9537
18.434
17.9185
17.4074
16.901
16.3994
15.9024
15.4101
14.9222
14.4386
13.9592
13.4838
13.0126
12.5456
12.0825
11.6235
11.1685
10.7173
10.2698
9.82608
9.38588
8.94921
8.516
8.08625
7.66002
7.2374
6.81849
6.40339
5.99217
5.58472
5.18088
4.78037
4.38294
3.98832
3.59635
3.20691
2.82
2.43568
2.05361
1.67481
1.29649
0.927538
0.554137
0.178106
63.5906
61.1128
58.7186
57.0182
55.5129
54.0419
52.5945
51.205
49.913
48.743
47.6987
46.7675
45.929
45.1613
44.4441
43.761
43.0992
42.4498
41.8065
41.1657
40.5252
39.884
39.2416
38.5981
37.954
37.3096
36.6654
36.0218
35.3794
34.7384
34.0992
33.4622
32.8279
32.1967
31.5692
30.9457
30.3267
29.7123
29.1027
28.498
27.8981
27.303
26.7128
26.1273
25.5466
24.9707
24.3996
23.8333
23.2719
22.7156
22.1643
21.6179
21.0764
20.5397
20.0073
19.4793
18.9553
18.4355
17.9199
17.4088
16.9023
16.4006
15.9035
15.411
14.9229
14.4392
13.9596
13.4842
13.0129
12.5457
12.0824
11.6233
11.168
10.7166
10.269
9.82503
9.3847
8.94793
8.51464
8.08487
7.65863
7.23603
6.81714
6.40206
5.99081
5.58333
5.17942
4.77885
4.38138
3.98677
3.59484
3.2055
2.81868
2.43452
2.05253
1.67404
1.29551
0.928033
0.554664
0.176756
62.9713
60.5804
58.3501
56.7924
55.3793
53.9795
52.5942
51.254
49.9971
48.8501
47.8195
46.895
46.0581
45.2882
44.5666
43.8774
43.2089
42.5524
41.9021
41.2546
40.6076
39.9603
39.3122
38.6635
38.0145
37.3657
36.7174
36.0703
35.4246
34.7806
34.1388
33.4994
32.863
32.23
31.6007
30.9756
30.3551
29.7393
29.1283
28.5223
27.9211
27.325
26.7337
26.1473
25.5657
24.989
24.4172
23.8502
23.2881
22.7311
22.1791
21.632
21.0898
20.5524
20.0194
19.4907
18.9662
18.446
17.93
17.4185
16.9117
16.4095
15.912
15.419
14.9305
14.4462
13.9662
13.4903
13.0185
12.5508
12.0872
11.6275
11.1717
10.7199
10.2718
9.82742
9.38673
8.94964
8.51612
8.08614
7.65977
7.23705
6.81806
6.40285
5.99146
5.58377
5.17965
4.77886
4.38122
3.98648
3.5945
3.20516
2.8184
2.43434
2.05242
1.67421
1.29545
0.929353
0.556088
0.17631
62.5264
60.1987
58.0652
56.6021
55.2607
53.9129
52.5678
51.2583
50.0234
48.8909
47.8688
46.9481
46.1114
45.339
44.6128
43.9182
43.2436
42.581
41.9249
41.2719
40.6201
39.9685
39.3166
38.6647
38.0129
37.3617
36.7116
36.0628
35.4158
34.7709
34.1283
33.4885
32.8518
32.2187
31.5895
30.9646
30.3441
29.7284
29.1175
28.5116
27.9106
27.3146
26.7234
26.1373
25.556
24.9797
24.4081
23.8415
23.2798
22.7232
22.1714
21.6246
21.0826
20.5453
20.0125
19.4842
18.96
18.4402
17.9248
17.4138
16.9073
16.4055
15.9082
15.4154
14.9269
14.4428
13.9628
13.487
13.0153
12.5476
12.0839
11.6241
11.1683
10.7163
10.2681
9.82369
9.38298
8.94592
8.51249
8.08265
7.65646
7.23393
6.81513
6.40006
5.98875
5.58107
5.17692
4.77608
4.37843
3.98372
3.59187
3.20271
2.8162
2.43242
2.05076
1.67297
1.29409
0.929423
0.556473
0.175584
62.2339
59.9449
57.9043
56.5467
55.3014
54.0213
52.7193
51.4367
50.2178
49.093
48.0725
47.1487
46.3053
45.5234
44.786
44.0787
43.3909
42.7151
42.0461
41.3808
40.7175
40.0553
39.3938
38.7332
38.0737
37.4156
36.7593
36.1052
35.4534
34.8044
34.1584
33.5157
32.8766
32.2416
31.6107
30.9844
30.3628
29.7461
29.1343
28.5276
27.9259
27.3293
26.7378
26.1513
25.5698
24.9934
24.4218
23.8552
23.2935
22.7367
22.1849
21.638
21.0958
20.5584
20.0255
19.497
18.9729
18.4532
17.9378
17.4269
16.9204
16.4185
15.921
15.428
14.9392
14.4547
13.9743
13.4981
13.0259
12.5577
12.0935
11.6332
11.1768
10.7243
10.2756
9.83065
9.38951
8.95209
8.51836
8.08829
7.66192
7.23923
6.82028
6.40501
5.99345
5.58544
5.18095
4.77974
4.38177
3.9868
3.59477
3.20551
2.81897
2.43522
2.05357
1.67589
1.29656
0.932717
0.55933
0.177006
62.1442
59.5516
57.3756
56.0764
54.9484
53.7664
52.5409
51.3193
50.1474
49.0565
48.0595
47.1513
46.318
45.5421
44.8075
44.1008
43.4118
42.7335
42.0612
41.3921
40.7246
40.058
39.3922
38.7273
38.0636
37.4016
36.7417
36.0841
35.4294
34.7776
34.1293
33.4846
32.844
32.2076
31.5757
30.9485
30.3262
29.7089
29.0967
28.4897
27.8878
27.2911
26.6996
26.1133
25.5321
24.956
24.3849
23.8188
23.2577
22.7016
22.1504
21.6042
21.0627
20.5259
19.9937
19.4661
18.9429
18.4242
17.9099
17.4001
16.8947
16.3938
15.8972
15.405
14.917
14.4332
13.9535
13.478
13.0064
12.5389
12.0752
11.6155
11.1596
10.7076
10.2594
9.81501
9.37445
8.93757
8.50449
8.07503
7.64936
7.2273
6.80901
6.3943
5.98328
5.57571
5.17166
4.77082
4.37328
3.97869
3.58717
3.19839
2.81245
2.42926
2.04826
1.6712
1.29238
0.928997
0.555243
0.175028
63.5393
60.7462
58.1281
56.4671
55.144
53.8832
52.6425
51.4338
50.282
49.2088
48.2237
47.3213
46.488
45.707
44.963
44.2434
43.5392
42.8445
42.1554
41.4698
40.7868
40.1059
39.4273
38.7512
38.078
37.4079
36.7413
36.0785
35.4195
34.7647
34.1142
33.4682
32.8269
32.1904
31.5588
30.9323
30.3109
29.6947
29.0836
28.4779
27.8773
27.282
26.6919
26.1069
25.527
24.9523
24.3824
23.8176
23.2577
22.7028
22.1526
21.6073
21.0666
20.5307
19.9993
19.4725
18.95
18.432
17.9184
17.4092
16.9043
16.4039
15.9076
15.4157
14.9278
14.4442
13.9646
13.4891
13.0176
12.55
12.0863
11.6265
11.1705
10.7184
10.27
9.82555
9.38484
8.94791
8.51472
8.08526
7.6595
7.23742
6.81901
6.40422
5.99303
5.58532
5.18105
4.78007
4.38233
3.98766
3.596
3.20722
2.82125
2.43802
2.05728
1.67945
1.30303
0.931482
0.558125
0.184242
68.6233
63.7226
59.7844
57.527
55.804
54.1347
52.5173
51.0123
49.6538
48.4521
47.3989
46.4733
45.6496
44.9014
44.2057
43.5442
42.9032
42.2731
41.6479
41.0236
40.3983
39.7708
39.141
38.5089
37.8749
37.2395
36.6032
35.9665
35.33
34.6941
34.0593
33.4263
32.7954
32.1673
31.5426
30.9217
30.305
29.6928
29.0852
28.4822
27.8838
27.2901
26.7009
26.1164
25.5365
24.9613
24.3908
23.8252
23.2645
22.7088
22.1581
21.6123
21.0713
20.535
20.0031
19.4754
18.9516
18.4321
17.9167
17.4058
16.8996
16.3981
15.9014
15.4092
14.9213
14.4378
13.9584
13.4831
13.012
12.545
12.0822
11.6233
11.1684
10.7174
10.2702
9.82653
9.3864
8.9498
8.51662
8.08692
7.6607
7.23815
6.8193
6.4043
5.99315
5.58582
5.18205
4.78157
4.38408
3.98937
3.59727
3.20771
2.82065
2.4362
2.05415
1.6751
1.29782
0.925191
0.554242
0.182048
65.3636
62.2393
59.3413
57.4454
55.8364
54.2288
52.6433
51.148
49.7859
48.5732
47.5054
46.5643
45.7256
44.9638
44.2566
43.5854
42.9366
42.3002
41.6701
41.0419
40.4135
39.7837
39.152
38.5184
37.8833
37.247
36.6101
35.973
35.3362
34.7001
34.0652
33.432
32.801
32.1727
31.5478
30.9266
30.3096
29.6971
29.0892
28.4859
27.8873
27.2935
26.7042
26.1195
25.5395
24.9642
24.3936
23.8279
23.267
22.7111
22.1603
21.6144
21.0733
20.537
20.005
19.4772
18.9535
18.4339
17.9184
17.4074
16.901
16.3994
15.9025
15.4102
14.9223
14.4387
13.9593
13.4841
13.0129
12.5459
12.083
11.6241
11.1691
10.7181
10.2708
9.82713
9.38701
8.95038
8.5172
8.08745
7.66122
7.23858
6.81968
6.40458
5.99337
5.58593
5.18213
4.78162
4.3842
3.98953
3.59751
3.20798
2.82098
2.43654
2.05446
1.67543
1.29736
0.926935
0.553789
0.179677
63.8014
61.8477
59.5636
57.6259
55.9458
54.3513
52.8036
51.3378
49.9898
48.7765
47.6972
46.7377
45.8776
45.0942
44.3668
43.6778
43.0136
42.3644
41.7234
41.0862
40.4504
39.8143
39.1773
38.5394
37.9006
37.2613
36.622
35.9829
35.3445
34.7071
34.0712
33.4371
32.8054
32.1765
31.551
30.9294
30.312
29.6991
29.0909
28.4874
27.8886
27.2946
26.7052
26.1205
25.5404
24.9651
24.3944
23.8286
23.2677
22.7118
22.1609
21.615
21.0739
20.5375
20.0056
19.4778
18.954
18.4344
17.9188
17.4077
16.9012
16.3995
15.9025
15.4101
14.9222
14.4386
13.9592
13.4839
13.0128
12.5458
12.0828
11.6239
11.1689
10.7178
10.2705
9.8268
9.38668
8.95004
8.51683
8.08707
7.66082
7.23814
6.81917
6.40401
5.99272
5.58522
5.18137
4.78088
4.38351
3.98894
3.59702
3.20763
2.82072
2.43636
2.05418
1.67513
1.29637
0.92768
0.551503
0.17595
62.8255
61.4035
59.4276
57.5132
55.8159
54.2604
52.7735
51.3612
50.0526
48.8654
47.8011
46.8481
45.9883
45.2013
44.4679
43.7717
43.1
42.4433
41.795
41.1509
40.5085
39.8663
39.2237
38.5806
37.9372
37.2938
36.6507
36.0084
35.3671
34.7273
34.0892
33.4533
32.8198
32.1895
31.5627
30.9398
30.3213
29.7074
29.0983
28.494
27.8945
27.2998
26.7099
26.1248
25.5443
24.9687
24.3978
23.8317
23.2705
22.7144
22.1632
21.6171
21.0758
20.5393
20.0071
19.4792
18.9553
18.4355
17.9199
17.4086
16.902
16.4001
15.903
15.4105
14.9225
14.4389
13.9594
13.4841
13.0129
12.5458
12.0827
11.6237
11.1686
10.7174
10.2699
9.82616
9.38593
8.94922
8.51594
8.08615
7.65984
7.23714
6.81813
6.40295
5.9916
5.58406
5.18014
4.77965
4.38228
3.98778
3.59594
3.20668
2.81986
2.43563
2.05344
1.67464
1.29542
0.929075
0.551198
0.172815
62.027
60.7496
59.0235
57.2616
55.6314
54.1434
52.7306
51.3818
50.1197
48.9635
47.9174
46.9728
46.1143
45.3236
44.5835
43.879
43.1983
42.5324
41.8753
41.2228
40.5726
39.9233
39.2741
38.6251
37.9763
37.3281
36.6808
36.0348
35.3903
34.7478
34.1073
33.4692
32.834
32.2022
31.574
30.95
30.3304
29.7156
29.1056
28.5005
27.9003
27.305
26.7146
26.129
25.5482
24.9722
24.4011
23.8348
23.2734
22.717
22.1657
21.6193
21.0778
20.541
20.0086
19.4805
18.9565
18.4366
17.921
17.4097
16.903
16.4011
15.9038
15.4112
14.923
14.4392
13.9597
13.4842
13.0129
12.5457
12.0825
11.6233
11.168
10.7166
10.269
9.82499
9.38465
8.94779
8.51448
8.08462
7.65834
7.23562
6.81667
6.40145
5.99012
5.58249
5.17854
4.77795
4.38058
3.98606
3.59432
3.20513
2.81849
2.43438
2.05233
1.67385
1.29429
0.930456
0.551275
0.169921
61.399
60.2037
58.6538
57.0479
55.5089
54.0894
52.7408
51.446
50.2238
49.0938
48.0631
47.1253
46.2672
45.4726
44.7257
44.0128
43.3229
42.6478
41.9818
41.3211
40.6631
40.0067
39.3511
38.6962
38.0422
37.3893
36.7378
36.0879
35.44
34.7944
34.1511
33.5106
32.8732
32.2394
31.6094
30.9837
30.3625
29.7461
29.1346
28.528
27.9265
27.3299
26.7383
26.1516
25.5698
24.993
24.4209
23.8539
23.2917
22.7346
22.1824
21.6353
21.093
20.5555
20.0224
19.4936
18.969
18.4487
17.9326
17.421
16.9139
16.4116
15.9138
15.4207
14.932
14.4477
13.9675
13.4916
13.0198
12.5521
12.0884
11.6286
11.1728
10.7209
10.2728
9.82835
9.38757
8.9504
8.51677
8.08671
7.66023
7.2374
6.81828
6.40294
5.9914
5.58357
5.17934
4.77851
4.3809
3.98624
3.5944
3.20521
2.81857
2.43459
2.05256
1.67446
1.29445
0.933277
0.552899
0.16841
60.9479
59.8156
58.3679
56.8633
55.3942
54.0235
52.7138
51.4498
50.2492
49.1325
48.1082
47.1717
46.311
45.5113
44.7578
44.0378
43.3409
42.6594
41.9878
41.3222
40.6605
40.001
39.3431
38.6866
38.0314
37.3776
36.7256
36.0754
35.4274
34.7817
34.1386
33.4984
32.8615
32.228
31.5985
30.9732
30.3524
29.7362
29.1249
28.5185
27.917
27.3205
26.7289
26.1424
25.5607
24.984
24.4122
23.8453
23.2833
22.7264
22.1744
21.6274
21.0852
20.5477
20.0148
19.4862
18.962
18.442
17.9264
17.4153
16.9086
16.4066
15.9091
15.4161
14.9275
14.4433
13.9632
13.4873
13.0156
12.5478
12.0841
11.6243
11.1684
10.7164
10.2682
9.82371
9.38296
8.94585
8.51236
8.08246
7.65622
7.23361
6.81474
6.39957
5.98815
5.58036
5.17614
4.77528
4.37767
3.98306
3.59134
3.20235
2.81597
2.43232
2.05056
1.673
1.29268
0.934409
0.553189
0.16659
60.6487
59.5587
58.217
56.8289
55.4592
54.1587
52.8948
51.6597
50.4752
49.3641
48.3371
47.3917
46.518
45.7024
44.9318
44.1943
43.4804
42.7828
42.0964
41.4176
40.744
40.0743
39.4076
38.7434
38.0817
37.4223
36.7655
36.1112
35.4597
34.8111
34.1656
33.5234
32.8849
32.2502
31.6197
30.9935
30.372
29.7552
29.1433
28.5364
27.9344
27.3375
26.7457
26.1588
25.577
25.0001
24.4282
23.8612
23.2992
22.7421
22.19
21.6427
21.1003
20.5626
20.0295
19.5007
18.9765
18.4565
17.941
17.4299
16.9233
16.4212
15.9235
15.4302
14.9413
14.4566
13.9761
13.4997
13.0275
12.5592
12.0949
11.6345
11.178
10.7254
10.2767
9.83167
9.39051
8.95297
8.51922
8.08905
7.66266
7.23986
6.82086
6.40546
5.99383
5.58568
5.18114
4.77986
4.38193
3.98697
3.59508
3.20592
2.81953
2.43588
2.05412
1.67662
1.2955
0.938971
0.556122
0.167631
60.5428
59.0851
57.5889
56.3003
55.0842
53.8989
52.7217
51.5573
50.4285
49.3579
48.3581
47.4291
46.5637
45.7509
44.979
44.2377
43.5184
42.8148
42.1219
41.4368
40.7571
40.0815
39.4093
38.7401
38.0737
37.41
36.7491
36.0912
35.4364
34.7849
34.1367
33.4923
32.8518
32.2155
31.5836
30.9564
30.334
29.7165
29.1039
28.4965
27.8942
27.2972
26.7052
26.1185
25.5368
24.9604
24.3888
23.8225
23.261
22.7047
22.1532
21.6067
21.0649
20.528
19.9956
19.4678
18.9445
18.4257
17.9113
17.4014
16.8958
16.3948
15.8981
15.4058
14.9176
14.4338
13.954
13.4784
13.0067
12.5391
12.0753
11.6155
11.1596
10.7075
10.2593
9.81486
9.37417
8.93732
8.50411
8.0747
7.64891
7.22689
6.80849
6.3938
5.98266
5.57513
5.17098
4.77024
4.37266
3.97827
3.58679
3.19831
2.81249
2.42971
2.04873
1.67236
1.29165
0.935869
0.551533
0.16435
61.9564
60.3292
58.2831
56.5861
55.172
53.9179
52.7396
51.6027
50.5071
49.4649
48.4847
47.5668
46.7049
45.8894
45.11
44.3575
43.6247
42.9061
42.198
41.4978
40.8038
40.1151
39.4311
38.7514
38.076
37.4046
36.7375
36.0745
35.4158
34.7612
34.1111
33.4654
32.8245
32.1881
31.5568
30.9303
30.309
29.6927
29.0817
28.4757
27.8751
27.2796
26.6895
26.1043
25.5244
24.9495
24.3797
23.8148
23.255
22.6999
22.1499
21.6045
21.0641
20.5281
19.9969
19.47
18.9478
18.4298
17.9164
17.4072
16.9026
16.4021
15.9061
15.4141
14.9265
14.4428
13.9634
13.4879
13.0165
12.5489
12.0853
11.6255
11.1697
10.7175
10.2693
9.82476
9.38415
8.94717
8.51407
8.08455
7.65888
7.23676
6.81843
6.4036
5.99249
5.58477
5.18062
4.77967
4.38209
3.98751
3.59607
3.20746
2.8218
2.4389
2.05858
1.68133
1.30504
0.934927
0.559541
0.182059
67.6263
63.1438
59.5196
57.3607
55.6882
54.0844
52.5274
51.0624
49.7261
48.5352
47.4861
46.5605
45.734
44.9815
44.2808
43.6139
42.9674
42.3321
41.7016
41.0723
40.4422
39.8103
39.1762
38.5402
37.9027
37.264
36.6248
35.9855
35.3467
34.7088
34.0722
33.4375
32.8051
32.1757
31.5498
30.9279
30.3102
29.6972
29.0888
28.4852
27.8863
27.2921
26.7026
26.1178
25.5376
24.9623
24.3916
23.8259
23.265
22.7092
22.1583
21.6125
21.0714
20.535
20.0029
19.4751
18.9513
18.4316
17.9162
17.4053
16.8989
16.3974
15.9006
15.4083
14.9204
14.4369
13.9575
13.4822
13.0111
12.5441
12.0812
11.6224
11.1675
10.7164
10.2691
9.82542
9.38524
8.94859
8.51536
8.08562
7.6594
7.23687
6.81805
6.40309
5.99198
5.58467
5.18091
4.78044
4.38295
3.98826
3.59618
3.20665
2.81963
2.43525
2.0532
1.67432
1.29696
0.924962
0.554334
0.1812
64.3898
61.7633
59.1409
57.2918
55.7004
54.1495
52.6279
51.1811
49.8502
48.6557
47.5973
46.6596
45.82
45.0548
44.3426
43.6657
43.0107
42.3682
41.7319
41.0978
40.4637
39.8284
39.1917
38.5535
37.9142
37.2743
36.634
35.994
35.3546
34.7163
34.0794
33.4445
32.8119
32.1823
31.5562
30.9339
30.316
29.7026
29.0939
28.49
27.8909
27.2966
26.7069
26.1219
25.5416
24.9661
24.3954
23.8294
23.2684
22.7124
22.1614
21.6154
21.0742
20.5378
20.0057
19.4778
18.9539
18.4342
17.9186
17.4074
16.9009
16.3992
15.9022
15.4098
14.9219
14.4383
13.9588
13.4835
13.0124
12.5454
12.0824
11.6235
11.1685
10.7174
10.2701
9.82633
9.38614
8.94944
8.51619
8.08639
7.66012
7.23748
6.81857
6.40349
5.99229
5.58487
5.18106
4.78058
4.38316
3.98853
3.59654
3.20707
2.82011
2.43575
2.05366
1.67484
1.29652
0.927578
0.554176
0.178126
62.8292
61.4068
59.4326
57.5166
55.8159
54.258
52.7703
51.3582
50.05
48.8634
47.7995
46.8468
45.9872
45.2003
44.4671
43.771
43.0994
42.4428
41.7946
41.1505
40.5082
39.866
39.2235
38.5804
37.937
37.2936
36.6506
36.0083
35.3671
34.7273
34.0892
33.4532
32.8198
32.1894
31.5626
30.9397
30.3212
29.7073
29.0982
28.4939
27.8944
27.2998
26.7099
26.1247
25.5443
24.9687
24.3978
23.8317
23.2706
22.7145
22.1634
21.6173
21.076
20.5395
20.0074
19.4794
18.9555
18.4357
17.92
17.4087
16.902
16.4
15.9029
15.4103
14.9223
14.4386
13.9592
13.4839
13.0127
12.5456
12.0826
11.6237
11.1686
10.7175
10.2701
9.82634
9.38611
8.94938
8.51607
8.08625
7.65991
7.23719
6.81816
6.40299
5.99166
5.58415
5.18026
4.7798
4.38245
3.98795
3.59609
3.2068
2.81994
2.43568
2.05347
1.67465
1.29542
0.929086
0.55122
0.17283
61.8581
60.9828
59.3492
57.4443
55.69
54.1459
52.71
51.3532
50.0914
48.9388
47.8964
46.9546
46.098
45.3087
44.57
43.8669
43.1877
42.5235
41.868
41.2173
40.5686
39.9207
39.2728
38.625
37.9773
37.33
36.6835
36.0382
35.3943
34.7522
34.1121
33.4743
32.8393
32.2075
31.5793
30.9552
30.3355
29.7205
29.1103
28.5051
27.9047
27.3093
26.7187
26.133
25.552
24.9759
24.4046
23.8382
23.2767
22.7203
22.1688
21.6223
21.0808
20.5439
20.0115
19.4833
18.9592
18.4391
17.9231
17.4116
16.9047
16.4025
15.905
15.4123
14.924
14.4402
13.9606
13.4851
13.0139
12.5467
12.0836
11.6245
11.1693
10.718
10.2704
9.82646
9.38613
8.94924
8.51585
8.08588
7.65948
7.23663
6.81755
6.40223
5.99082
5.58317
5.17924
4.7787
4.3814
3.98694
3.59524
3.20606
2.81939
2.43523
2.05306
1.67452
1.29468
0.931717
0.550961
0.168458
61.0614
60.3385
58.9692
57.2143
55.5068
54.0136
52.647
51.3569
50.149
49.0352
48.0176
47.0889
46.236
45.444
44.6982
43.9856
43.2958
42.6206
41.9545
41.2937
40.6357
39.9793
39.3239
38.6693
38.0157
37.3633
36.7124
36.0632
35.4162
34.7713
34.1289
33.4893
32.8527
32.2197
31.5904
30.9653
30.3448
29.729
29.1181
28.5122
27.9112
27.3153
26.7242
26.1381
25.5569
24.9805
24.409
23.8424
23.2807
22.7241
22.1723
21.6257
21.0839
20.5468
20.0141
19.4858
18.9614
18.4413
17.9253
17.4137
16.9066
16.4043
15.9067
15.4138
14.9253
14.4413
13.9615
13.486
13.0145
12.5472
12.0839
11.6246
11.1692
10.7177
10.2699
9.8258
9.38525
8.94827
8.51474
8.08475
7.65827
7.23543
6.81628
6.40096
5.98945
5.58174
5.17768
4.7771
4.37973
3.98534
3.59369
3.2047
2.81815
2.43424
2.05213
1.67414
1.29364
0.934597
0.551288
0.164416
60.4306
59.7932
58.6111
57.0195
55.3957
53.9623
52.6568
51.423
50.2596
49.1771
48.179
47.2596
46.4085
45.6125
44.8589
44.1364
43.4356
42.7493
42.0725
41.4015
40.7343
40.0695
39.4065
38.7452
38.0856
37.4278
36.7721
36.1188
35.468
34.8199
34.1746
33.5325
32.8937
32.2586
31.6276
31.0009
30.3788
29.7615
29.1492
28.5418
27.9396
27.3423
26.7501
26.1629
25.5807
25.0034
24.431
23.8636
23.3011
22.7436
22.1912
21.6437
21.1011
20.5632
20.0299
19.5008
18.976
18.4553
17.9389
17.4269
16.9195
16.4167
15.9186
15.4251
14.9361
14.4514
13.9711
13.495
13.0231
12.5551
12.0913
11.6314
11.1755
10.7233
10.2751
9.83042
9.3895
8.95207
8.51828
8.08796
7.66132
7.23824
6.81896
6.40338
5.99168
5.58363
5.17933
4.7784
4.38083
3.98619
3.5945
3.20542
2.81896
2.43511
2.05308
1.67553
1.29437
0.939634
0.553804
0.162333
59.9764
59.4057
58.3351
56.8495
55.2915
53.8991
52.6279
51.4222
50.2801
49.2101
48.2181
47.2987
46.4437
45.6408
44.8792
44.1481
43.4393
42.7459
42.0633
41.3878
40.7174
40.0504
39.3863
38.7245
38.065
37.4078
36.7529
36.1005
35.4508
34.8037
34.1596
33.5186
32.881
32.247
31.6169
30.9911
30.3697
29.753
29.141
28.534
27.9319
27.3348
26.7426
26.1555
25.5733
24.9961
24.4237
23.8564
23.294
22.7366
22.1842
21.6367
21.0941
20.5562