/*--------------------------------*- C++ -*----------------------------------*\
| =========                 |                                                 |
| \\      /  F ield         | OpenFOAM: The Open Source CFD Toolbox           |
|  \\    /   O peration     | Version:  5.x                                   |
|   \\  /    A nd           | Web:      www.OpenFOAM.org                      |
|    \\/     M anipulation  |                                                 |
\*---------------------------------------------------------------------------*/
/*   Windows 32 and 64 bit porting by blueCAPE: http://www.bluecape.com.pt   *\
|  Based on Windows porting (2.0.x v4) by Symscape: http://www.symscape.com   |
\*---------------------------------------------------------------------------*/
FoamFile
{
    version     2.0;
    format      ascii;
    class       surfaceScalarField;
    location    "10";
    object      phi;
}
// * * * * * * * * * * * * * * * * * * * * * * * * * * * * * * * * * * * * * //

dimensions      [0 3 -1 0 0 0 0];

internalField   nonuniform List<scalar> 
27900
(
2.58767e-008
1.82361e-009
1.82263e-009
2.14284e-008
2.22752e-009
2.22559e-009
1.72262e-008
2.10449e-009
2.10203e-009
1.36177e-008
1.80724e-009
1.80473e-009
1.07935e-008
1.41424e-009
1.41235e-009
8.77276e-009
1.01199e-009
1.01102e-009
7.39722e-009
6.89161e-010
6.88906e-010
6.44118e-009
4.79139e-010
4.79326e-010
5.7248e-009
3.58798e-010
3.5927e-010
5.14917e-009
2.8782e-010
2.88546e-010
4.67418e-009
2.36965e-010
2.37943e-010
4.28617e-009
1.93114e-010
1.94325e-010
3.97735e-009
1.53339e-010
1.54727e-010
3.73807e-009
1.18505e-010
1.19993e-010
3.55654e-009
8.96607e-011
9.11752e-011
3.4205e-009
6.69786e-011
6.84515e-011
3.31908e-009
4.97961e-011
5.11844e-011
3.24311e-009
3.71382e-011
3.84108e-011
3.1857e-009
2.79752e-011
2.91317e-011
3.14139e-009
2.14976e-011
2.2544e-011
3.10643e-009
1.69681e-011
1.79167e-011
3.07779e-009
1.38792e-011
1.47339e-011
3.05357e-009
1.17869e-011
1.25544e-011
3.03215e-009
1.04539e-011
1.11358e-011
3.01268e-009
9.62242e-012
1.02212e-011
2.9943e-009
9.14463e-012
9.65799e-012
2.97665e-009
8.87295e-012
9.30476e-012
2.95929e-009
8.76147e-012
9.11632e-012
2.94209e-009
8.73368e-012
9.02095e-012
2.92476e-009
8.75828e-012
8.98263e-012
2.90715e-009
8.8367e-012
9.00578e-012
2.88901e-009
8.99468e-012
9.11304e-012
2.87022e-009
9.237e-012
9.31225e-012
2.85067e-009
9.51659e-012
9.55626e-012
2.83034e-009
9.83852e-012
9.85417e-012
2.80926e-009
1.0157e-011
1.01578e-011
2.78756e-009
1.04526e-011
1.0451e-011
2.76547e-009
1.06323e-011
1.06386e-011
2.74313e-009
1.07452e-011
1.07683e-011
2.72071e-009
1.07746e-011
1.08143e-011
2.69828e-009
1.07815e-011
1.08368e-011
2.676e-009
1.07072e-011
1.0776e-011
2.65383e-009
1.06514e-011
1.0732e-011
2.63181e-009
1.05871e-011
1.0672e-011
2.60981e-009
1.05766e-011
1.06601e-011
2.58795e-009
1.0523e-011
1.05983e-011
2.5661e-009
1.0517e-011
1.05732e-011
2.54432e-009
1.04973e-011
1.05137e-011
2.5225e-009
1.05186e-011
1.04753e-011
2.50084e-009
1.04533e-011
1.03356e-011
2.47934e-009
1.03847e-011
1.01848e-011
2.45822e-009
1.02305e-011
9.94569e-012
2.4375e-009
1.00619e-011
9.70346e-012
2.41747e-009
9.78472e-012
9.37599e-012
2.39803e-009
9.55108e-012
9.11763e-012
2.37918e-009
9.33792e-012
8.8986e-012
2.36055e-009
9.25341e-012
8.82531e-012
2.34211e-009
9.18307e-012
8.7844e-012
2.32352e-009
9.20989e-012
8.85694e-012
2.30481e-009
9.20261e-012
8.90898e-012
2.28588e-009
9.18646e-012
8.97052e-012
2.26713e-009
9.01344e-012
8.89709e-012
2.24861e-009
8.81209e-012
8.80761e-012
2.23056e-009
8.54024e-012
8.64255e-012
2.21283e-009
8.32061e-012
8.51391e-012
2.19558e-009
8.06303e-012
8.32679e-012
2.1786e-009
7.89187e-012
8.19847e-012
2.16195e-009
7.71777e-012
8.03497e-012
2.14541e-009
7.60482e-012
7.90496e-012
2.12924e-009
7.42942e-012
7.69221e-012
2.11331e-009
7.30535e-012
7.50768e-012
2.09778e-009
7.15675e-012
7.27243e-012
2.0825e-009
7.06261e-012
7.07344e-012
2.06772e-009
6.91913e-012
6.82398e-012
2.0533e-009
6.83825e-012
6.64635e-012
2.03934e-009
6.74358e-012
6.4745e-012
2.02561e-009
6.70247e-012
6.38737e-012
2.01226e-009
6.61359e-012
6.29166e-012
1.99908e-009
6.57995e-012
6.28045e-012
1.98609e-009
6.52981e-012
6.26556e-012
1.97302e-009
6.52266e-012
6.29291e-012
1.96001e-009
6.45666e-012
6.25209e-012
1.9469e-009
6.40511e-012
6.20811e-012
1.93389e-009
6.2817e-012
6.07256e-012
1.92098e-009
6.13268e-012
5.90062e-012
1.90861e-009
5.88736e-012
5.63533e-012
1.89682e-009
5.65359e-012
5.38647e-012
1.88582e-009
5.40522e-012
5.12828e-012
1.87542e-009
5.21445e-012
4.93658e-012
1.86571e-009
5.02678e-012
4.76203e-012
1.85642e-009
4.91194e-012
4.67067e-012
1.84753e-009
4.80109e-012
4.5887e-012
1.83879e-009
4.73671e-012
4.55723e-012
1.83039e-009
4.5967e-012
4.45306e-012
1.82191e-009
4.60482e-012
4.49145e-012
1.8139e-009
4.29578e-012
4.19613e-012
1.8051e-009
4.57178e-012
4.47386e-012
1.7978e-009
3.81867e-012
3.71567e-012
1.7933e-009
2.38301e-012
2.28251e-012
3.65722e-012
3.58028e-012
3.23496e-008
6.71934e-010
2.15817e-009
3.03208e-008
1.50975e-009
2.74986e-009
2.78166e-008
1.77717e-009
2.8344e-009
2.50681e-008
1.82384e-009
2.73411e-009
2.2284e-008
1.70637e-009
2.49326e-009
1.96726e-008
1.46061e-009
2.16409e-009
1.73713e-008
1.17023e-009
1.82205e-009
1.54294e-008
9.04374e-010
1.51855e-009
1.38338e-008
6.8903e-010
1.26659e-009
1.25411e-008
5.21297e-010
1.05953e-009
1.15e-008
3.89739e-010
8.87748e-010
1.06628e-008
2.8477e-010
7.44209e-010
9.9899e-009
2.00519e-010
6.24217e-010
9.44874e-009
1.33536e-010
5.24479e-010
9.01322e-009
8.1387e-011
4.42268e-010
8.66188e-009
4.197e-011
3.74908e-010
8.37754e-009
1.30947e-011
3.1989e-010
8.14606e-009
-7.36405e-012
2.74873e-010
7.9565e-009
-2.1231e-011
2.37947e-010
7.79963e-009
-2.98505e-011
2.07469e-010
7.66858e-009
-3.44305e-011
1.82151e-010
7.55728e-009
-3.58994e-011
1.60843e-010
7.46152e-009
-3.51115e-011
1.42786e-010
7.37751e-009
-3.26495e-011
1.27325e-010
7.30281e-009
-2.90886e-011
1.14059e-010
7.23497e-009
-2.48273e-011
1.02516e-010
7.17258e-009
-2.02565e-011
9.24889e-011
7.11414e-009
-1.55764e-011
8.37099e-011
7.05888e-009
-1.09977e-011
7.60815e-011
7.0057e-009
-6.59764e-012
6.93631e-011
6.95406e-009
-2.45481e-012
6.35599e-011
6.90323e-009
1.45973e-012
5.85612e-011
6.85287e-009
5.13367e-012
5.44005e-011
6.80247e-009
8.56873e-012
5.08913e-011
6.75184e-009
1.1738e-011
4.80454e-011
6.70078e-009
1.4629e-011
4.56856e-011
6.64933e-009
1.71885e-011
4.37592e-011
6.59756e-009
1.9369e-011
4.20092e-011
6.54564e-009
2.11767e-011
4.04598e-011
6.49371e-009
2.26465e-011
3.89996e-011
6.44192e-009
2.38198e-011
3.77007e-011
6.39045e-009
2.47216e-011
3.6435e-011
6.33931e-009
2.54295e-011
3.53336e-011
6.28858e-009
2.59858e-011
3.43422e-011
6.23818e-009
2.64287e-011
3.35478e-011
6.1882e-009
2.67448e-011
3.28018e-011
6.13853e-009
2.69843e-011
3.21993e-011
6.08923e-009
2.71489e-011
3.16418e-011
6.04019e-009
2.72522e-011
3.11739e-011
5.99162e-009
2.72484e-011
3.06178e-011
5.9435e-009
2.7173e-011
3.00412e-011
5.89611e-009
2.70113e-011
2.93412e-011
5.84948e-009
2.67942e-011
2.85785e-011
5.80395e-009
2.65112e-011
2.76632e-011
5.75947e-009
2.62543e-011
2.67715e-011
5.71608e-009
2.60425e-011
2.59488e-011
5.67342e-009
2.59066e-011
2.53367e-011
5.63143e-009
2.57843e-011
2.48769e-011
5.58969e-009
2.56817e-011
2.46306e-011
5.54819e-009
2.55197e-011
2.44738e-011
5.50673e-009
2.52772e-011
2.43349e-011
5.46572e-009
2.48999e-011
2.40442e-011
5.42521e-009
2.44662e-011
2.36384e-011
5.38553e-009
2.39867e-011
2.31196e-011
5.34653e-009
2.35165e-011
2.25654e-011
5.30849e-009
2.30331e-011
2.19802e-011
5.27112e-009
2.26012e-011
2.1438e-011
5.23454e-009
2.2187e-011
2.09343e-011
5.19845e-009
2.18044e-011
2.04391e-011
5.16316e-009
2.14121e-011
1.99089e-011
5.12845e-009
2.10796e-011
1.93477e-011
5.09457e-009
2.07872e-011
1.87747e-011
5.06126e-009
2.05611e-011
1.81667e-011
5.02891e-009
2.03585e-011
1.75593e-011
4.99726e-009
2.02252e-011
1.69708e-011
4.96653e-009
2.01051e-011
1.64726e-011
4.93635e-009
1.99904e-011
1.60248e-011
4.90703e-009
1.98249e-011
1.56816e-011
4.87819e-009
1.96546e-011
1.54055e-011
4.84998e-009
1.94375e-011
1.52445e-011
4.82195e-009
1.91768e-011
1.50857e-011
4.79434e-009
1.88286e-011
1.49605e-011
4.76684e-009
1.84403e-011
1.47578e-011
4.73975e-009
1.79873e-011
1.45152e-011
4.71295e-009
1.75026e-011
1.40988e-011
4.68707e-009
1.69854e-011
1.36121e-011
4.6621e-009
1.65129e-011
1.30086e-011
4.63844e-009
1.60706e-011
1.24491e-011
4.61582e-009
1.56648e-011
1.18725e-011
4.59448e-009
1.52537e-011
1.14476e-011
4.57402e-009
1.48594e-011
1.10916e-011
4.55449e-009
1.44344e-011
1.09036e-011
4.53548e-009
1.39781e-011
1.07345e-011
4.51728e-009
1.34268e-011
1.06025e-011
4.49936e-009
1.29564e-011
1.05876e-011
4.4822e-009
1.21944e-011
1.0165e-011
4.46459e-009
1.18077e-011
1.07036e-011
4.44904e-009
1.04271e-011
9.32093e-012
4.4368e-009
7.9718e-012
6.82296e-012
8.79196e-012
9.44704e-012
3.55261e-008
3.81682e-010
2.45006e-009
3.29405e-008
1.03348e-009
3.06364e-009
3.03959e-008
1.28464e-009
3.03832e-009
2.79864e-008
1.35972e-009
2.87402e-009
2.56963e-008
1.34788e-009
2.64793e-009
2.35379e-008
1.25723e-009
2.36124e-009
2.15542e-008
1.10636e-009
2.04779e-009
1.97868e-008
9.27996e-010
1.74452e-009
1.82563e-008
7.48673e-010
1.47151e-009
1.69602e-008
5.81017e-010
1.23641e-009
1.588e-008
4.29541e-010
1.0398e-009
1.49883e-008
2.96707e-010
8.78566e-010
1.42553e-008
1.8413e-010
7.47972e-010
1.3652e-008
9.20428e-011
6.4314e-010
1.31529e-008
1.93667e-011
5.5956e-010
1.27373e-008
-3.66191e-011
4.92776e-010
1.23891e-008
-7.88357e-011
4.39046e-010
1.20947e-008
-1.09676e-010
3.95555e-010
1.18438e-008
-1.31115e-010
3.60134e-010
1.16273e-008
-1.44931e-010
3.30879e-010
1.14389e-008
-1.52561e-010
3.06399e-010
1.12728e-008
-1.55317e-010
2.85435e-010
1.11251e-008
-1.54241e-010
2.67225e-010
1.09921e-008
-1.50247e-010
2.51059e-010
1.08714e-008
-1.44065e-010
2.36558e-010
1.07607e-008
-1.3637e-010
2.2324e-010
1.06584e-008
-1.27679e-010
2.1097e-010
1.05629e-008
-1.18411e-010
1.99488e-010
1.04735e-008
-1.08865e-010
1.88762e-010
1.03887e-008
-9.92765e-011
1.78595e-010
1.0308e-008
-8.97764e-011
1.69107e-010
1.02302e-008
-8.0434e-011
1.60258e-010
1.01549e-008
-7.12887e-011
1.52161e-010
1.00811e-008
-6.24054e-011
1.44679e-010
1.00086e-008
-5.38372e-011
1.37887e-010
9.93684e-009
-4.56499e-011
1.31629e-010
9.86559e-009
-3.79184e-011
1.25876e-010
9.79471e-009
-3.07267e-011
1.20385e-010
9.7242e-009
-2.41054e-011
1.15197e-010
9.65405e-009
-1.8058e-011
1.10197e-010
9.58433e-009
-1.25608e-011
1.05458e-010
9.51513e-009
-7.59288e-012
1.00868e-010
9.44645e-009
-3.10524e-012
9.65602e-011
9.37835e-009
9.52982e-013
9.2492e-011
9.31075e-009
4.62058e-012
8.87508e-011
9.24373e-009
7.91979e-012
8.52221e-011
9.17715e-009
1.08933e-011
8.19996e-011
9.11104e-009
1.35711e-011
7.89937e-011
9.04528e-009
1.59667e-011
7.62256e-011
8.98006e-009
1.8086e-011
7.35356e-011
8.91535e-009
1.99588e-011
7.09532e-011
8.85142e-009
2.1614e-011
6.83687e-011
8.78831e-009
2.30804e-011
6.57967e-011
8.72642e-009
2.43963e-011
6.31688e-011
8.66569e-009
2.56185e-011
6.06173e-011
8.60627e-009
2.67787e-011
5.82088e-011
8.54778e-009
2.78628e-011
5.6061e-011
8.49024e-009
2.88395e-011
5.41826e-011
8.43318e-009
2.96785e-011
5.2608e-011
8.37658e-009
3.03477e-011
5.12536e-011
8.32018e-009
3.08186e-011
5.00025e-011
8.26439e-009
3.11096e-011
4.8726e-011
8.20919e-009
3.12713e-011
4.73725e-011
8.15498e-009
3.13498e-011
4.59505e-011
8.10162e-009
3.13558e-011
4.44683e-011
8.04946e-009
3.13112e-011
4.29993e-011
7.99822e-009
3.1237e-011
4.15642e-011
7.94808e-009
3.11466e-011
4.02208e-011
7.8987e-009
3.10283e-011
3.8891e-011
7.85043e-009
3.09086e-011
3.76182e-011
7.80299e-009
3.08227e-011
3.63302e-011
7.75665e-009
3.08011e-011
3.50961e-011
7.71114e-009
3.08324e-011
3.38127e-011
7.66688e-009
3.0924e-011
3.25946e-011
7.62357e-009
3.10637e-011
3.13665e-011
7.58148e-009
3.12212e-011
3.02591e-011
7.54023e-009
3.1328e-011
2.91595e-011
7.50016e-009
3.13621e-011
2.82322e-011
7.46085e-009
3.13059e-011
2.73618e-011
7.42248e-009
3.11463e-011
2.66777e-011
7.38455e-009
3.08381e-011
2.59942e-011
7.34733e-009
3.03906e-011
2.5456e-011
7.31042e-009
2.9822e-011
2.48582e-011
7.27415e-009
2.91761e-011
2.43118e-011
7.23836e-009
2.84764e-011
2.35771e-011
7.20369e-009
2.77892e-011
2.2842e-011
7.17011e-009
2.71543e-011
2.19318e-011
7.1381e-009
2.65818e-011
2.10634e-011
7.1074e-009
2.60197e-011
2.00733e-011
7.07833e-009
2.54424e-011
1.92497e-011
7.05047e-009
2.48147e-011
1.843e-011
7.02394e-009
2.41137e-011
1.78261e-011
6.99828e-009
2.32992e-011
1.72149e-011
6.97379e-009
2.23567e-011
1.67304e-011
6.94983e-009
2.1389e-011
1.64435e-011
6.92696e-009
2.01228e-011
1.57647e-011
6.9034e-009
1.89341e-011
1.66625e-011
6.88278e-009
1.72208e-011
1.41249e-011
6.86495e-009
1.39166e-011
1.18964e-011
1.23331e-011
1.83834e-011
3.99288e-008
2.61071e-010
2.77016e-009
3.67502e-008
7.38275e-010
3.47201e-009
3.36213e-008
9.8839e-010
3.42282e-009
3.06828e-008
1.07587e-009
3.21885e-009
2.79965e-008
1.07708e-009
2.95272e-009
2.56152e-008
1.02052e-009
2.61385e-009
2.35636e-008
9.18615e-010
2.23657e-009
2.18328e-008
7.87273e-010
1.87005e-009
2.03935e-008
6.43476e-010
1.54381e-009
1.92076e-008
4.98283e-010
1.26812e-009
1.82364e-008
3.57935e-010
1.04211e-009
1.74442e-008
2.27713e-010
8.60207e-010
1.67993e-008
1.12394e-010
7.15471e-010
1.62735e-008
1.50391e-011
6.01389e-010
1.58437e-008
-6.41247e-011
5.1209e-010
1.54899e-008
-1.26608e-010
4.42576e-010
1.51953e-008
-1.74212e-010
3.8906e-010
1.4946e-008
-2.09301e-010
3.4795e-010
1.47317e-008
-2.33872e-010
3.16586e-010
1.45439e-008
-2.49948e-010
2.92503e-010
1.43765e-008
-2.59014e-010
2.74036e-010
1.42246e-008
-2.62618e-010
2.59487e-010
1.4085e-008
-2.61769e-010
2.47979e-010
1.39547e-008
-2.57595e-010
2.38466e-010
1.38324e-008
-2.50753e-010
2.3052e-010
1.37162e-008
-2.42068e-010
2.23396e-010
1.36054e-008
-2.31949e-010
2.16996e-010
1.34989e-008
-2.20964e-010
2.10868e-010
1.33965e-008
-2.0937e-010
2.05074e-010
1.32974e-008
-1.97592e-010
1.99345e-010
1.32013e-008
-1.85708e-010
1.93906e-010
1.31076e-008
-1.73891e-010
1.8864e-010
1.3016e-008
-1.62124e-010
1.83751e-010
1.2926e-008
-1.50536e-010
1.79056e-010
1.28373e-008
-1.39132e-010
1.74712e-010
1.27496e-008
-1.28022e-010
1.70533e-010
1.26628e-008
-1.17248e-010
1.66537e-010
1.25767e-008
-1.06921e-010
1.62467e-010
1.24915e-008
-9.70756e-011
1.584e-010
1.24071e-008
-8.77478e-011
1.54213e-010
1.23236e-008
-7.89415e-011
1.49999e-010
1.22411e-008
-7.06551e-011
1.45665e-010
1.21595e-008
-6.28681e-011
1.41381e-010
1.20788e-008
-5.55483e-011
1.37127e-010
1.19991e-008
-4.86981e-011
1.33016e-010
1.19203e-008
-4.22858e-011
1.28978e-010
1.18423e-008
-3.63057e-011
1.25126e-010
1.1765e-008
-3.07092e-011
1.21409e-010
1.16884e-008
-2.5514e-011
1.17845e-010
1.16125e-008
-2.0664e-011
1.14315e-010
1.15373e-008
-1.61583e-011
1.10836e-010
1.1463e-008
-1.19203e-011
1.07326e-010
1.13898e-008
-7.96308e-012
1.03769e-010
1.13179e-008
-4.196e-012
1.00138e-010
1.12473e-008
-6.34288e-013
9.6539e-011
1.11781e-008
2.781e-012
9.30776e-011
1.11101e-008
5.95699e-012
8.98431e-011
1.10432e-008
8.91891e-012
8.69043e-011
1.09769e-008
1.15679e-011
8.42626e-011
1.09112e-008
1.39537e-011
8.18895e-011
1.08458e-008
1.60041e-011
7.96222e-011
1.07812e-008
1.78457e-011
7.73892e-011
1.07172e-008
1.94579e-011
7.50728e-011
1.06543e-008
2.09649e-011
7.27198e-011
1.05923e-008
2.22889e-011
7.027e-011
1.05316e-008
2.35381e-011
6.78617e-011
1.0472e-008
2.46339e-011
6.54587e-011
1.04136e-008
2.56819e-011
6.31885e-011
1.03561e-008
2.65898e-011
6.09223e-011
1.02999e-008
2.75011e-011
5.87857e-011
1.02447e-008
2.83554e-011
5.66437e-011
1.01907e-008
2.92864e-011
5.46273e-011
1.01376e-008
3.01856e-011
5.25633e-011
1.00859e-008
3.11714e-011
5.06351e-011
1.00353e-008
3.21115e-011
4.86904e-011
9.9861e-009
3.30712e-011
4.69176e-011
9.93783e-009
3.3867e-011
4.51334e-011
9.89091e-009
3.45813e-011
4.35799e-011
9.84489e-009
3.50658e-011
4.20704e-011
9.79996e-009
3.54062e-011
4.08036e-011
9.75559e-009
3.5447e-011
3.95284e-011
9.71208e-009
3.53236e-011
3.84695e-011
9.66899e-009
3.49517e-011
3.73482e-011
9.62666e-009
3.45104e-011
3.63402e-011
9.58491e-009
3.39387e-011
3.51311e-011
9.54441e-009
3.34395e-011
3.39738e-011
9.50511e-009
3.29381e-011
3.26161e-011
9.4675e-009
3.25426e-011
3.13214e-011
9.43133e-009
3.20779e-011
2.98601e-011
9.39699e-009
3.161e-011
2.85875e-011
9.36404e-009
3.09737e-011
2.72864e-011
9.33263e-009
3.02403e-011
2.62334e-011
9.30229e-009
2.92593e-011
2.51713e-011
9.27338e-009
2.81385e-011
2.42732e-011
9.24511e-009
2.68532e-011
2.36445e-011
9.21821e-009
2.53214e-011
2.25018e-011
9.19026e-009
2.36281e-011
2.33793e-011
9.16613e-009
2.17249e-011
1.97943e-011
9.14545e-009
1.84841e-011
1.59367e-011
1.4951e-011
2.57431e-011
4.50489e-008
1.76562e-010
3.14163e-009
4.13189e-008
5.03529e-010
3.96184e-009
3.76521e-008
7.17568e-010
3.93367e-009
3.41942e-008
8.14022e-010
3.71424e-009
3.10222e-008
8.3141e-010
3.41082e-009
2.82281e-008
7.96943e-010
3.01085e-009
2.58665e-008
7.22313e-010
2.55284e-009
2.39339e-008
6.18552e-010
2.09814e-009
2.2387e-008
4.99355e-010
1.68932e-009
2.11647e-008
3.75101e-010
1.34492e-009
2.02035e-008
2.52134e-010
1.06669e-009
1.94481e-008
1.35626e-010
8.47283e-010
1.88537e-008
3.00099e-011
6.7643e-010
1.83859e-008
-6.1704e-011
5.44137e-010
1.80172e-008
-1.38114e-010
4.42294e-010
1.77245e-008
-1.99097e-010
3.64722e-010
1.74897e-008
-2.45903e-010
3.06254e-010
1.72978e-008
-2.80281e-010
2.62674e-010
1.71375e-008
-3.04204e-010
2.3061e-010
1.69999e-008
-3.19422e-010
2.07384e-010
1.68785e-008
-3.27638e-010
1.90783e-010
1.67679e-008
-3.302e-010
1.79106e-010
1.66648e-008
-3.2836e-010
1.71061e-010
1.65661e-008
-3.2304e-010
1.65641e-010
1.64705e-008
-3.1517e-010
1.62039e-010
1.63765e-008
-3.0542e-010
1.5962e-010
1.62835e-008
-2.94427e-010
1.57991e-010
1.6191e-008
-2.8258e-010
1.56832e-010
1.60989e-008
-2.70272e-010
1.55909e-010
1.60069e-008
-2.57717e-010
1.54994e-010
1.59148e-008
-2.45117e-010
1.54159e-010
1.58225e-008
-2.32535e-010
1.53419e-010
1.57298e-008
-2.20057e-010
1.52843e-010
1.56366e-008
-2.07728e-010
1.52353e-010
1.55428e-008
-1.95605e-010
1.52012e-010
1.54483e-008
-1.8373e-010
1.51711e-010
1.53532e-008
-1.72165e-010
1.51394e-010
1.52576e-008
-1.60976e-010
1.50865e-010
1.51617e-008
-1.50201e-010
1.5015e-010
1.50656e-008
-1.39878e-010
1.4916e-010
1.49697e-008
-1.30013e-010
1.47941e-010
1.48741e-008
-1.20628e-010
1.46415e-010
1.4779e-008
-1.11698e-010
1.44728e-010
1.46845e-008
-1.03234e-010
1.4287e-010
1.45907e-008
-9.5212e-011
1.40933e-010
1.44978e-008
-8.76348e-011
1.38859e-010
1.44056e-008
-8.04571e-011
1.36779e-010
1.43144e-008
-7.36799e-011
1.34646e-010
1.42239e-008
-6.72643e-011
1.32508e-010
1.41343e-008
-6.11995e-011
1.30241e-010
1.40458e-008
-5.54157e-011
1.27896e-010
1.39583e-008
-4.98965e-011
1.2536e-010
1.38722e-008
-4.45774e-011
1.22669e-010
1.37877e-008
-3.94507e-011
1.1976e-010
1.37048e-008
-3.44744e-011
1.16798e-010
1.36237e-008
-2.97046e-011
1.13822e-010
1.3544e-008
-2.51592e-011
1.10992e-010
1.34657e-008
-2.09181e-011
1.08307e-010
1.33885e-008
-1.69788e-011
1.05863e-010
1.33122e-008
-1.3391e-011
1.03549e-010
1.32366e-008
-1.00918e-011
1.01326e-010
1.31621e-008
-7.05827e-012
9.90316e-011
1.30885e-008
-4.1876e-012
9.66755e-011
1.30163e-008
-1.49026e-012
9.41713e-011
1.29453e-008
1.08752e-012
9.15884e-011
1.28758e-008
3.51194e-012
8.89206e-011
1.28077e-008
5.83242e-012
8.62792e-011
1.27411e-008
8.00443e-012
8.36374e-011
1.26757e-008
1.00928e-011
8.10454e-011
1.26118e-008
1.20951e-011
7.8478e-011
1.25492e-008
1.40985e-011
7.59861e-011
1.24881e-008
1.6073e-011
7.35201e-011
1.24281e-008
1.80744e-011
7.11029e-011
1.23697e-008
2.00564e-011
6.87263e-011
1.23127e-008
2.20397e-011
6.64307e-011
1.22571e-008
2.39139e-011
6.41918e-011
1.22027e-008
2.56671e-011
6.20372e-011
1.21499e-008
2.72055e-011
5.99955e-011
1.20981e-008
2.85359e-011
5.80962e-011
1.20476e-008
2.95594e-011
5.63115e-011
1.19978e-008
3.03031e-011
5.46281e-011
1.19491e-008
3.07353e-011
5.30423e-011
1.19009e-008
3.09534e-011
5.15164e-011
1.18536e-008
3.09724e-011
4.99864e-011
1.18071e-008
3.09285e-011
4.83905e-011
1.1762e-008
3.08616e-011
4.67424e-011
1.17182e-008
3.08603e-011
4.50315e-011
1.16761e-008
3.08524e-011
4.32627e-011
1.16356e-008
3.0827e-011
4.14488e-011
1.15971e-008
3.06736e-011
3.96862e-011
1.15601e-008
3.03726e-011
3.80018e-011
1.15248e-008
2.98254e-011
3.64185e-011
1.14908e-008
2.90393e-011
3.49576e-011
1.14584e-008
2.79787e-011
3.35035e-011
1.14268e-008
2.67788e-011
3.25582e-011
1.13968e-008
2.52403e-011
3.07396e-011
1.13653e-008
2.35395e-011
3.1711e-011
1.13384e-008
2.16437e-011
2.69383e-011
1.13164e-008
1.91137e-011
2.12522e-011
1.51964e-011
3.37337e-011
5.08553e-008
1.12186e-010
3.56071e-009
4.65313e-008
3.18017e-010
4.50641e-009
4.2283e-008
4.74972e-010
4.48627e-009
3.82919e-008
5.61376e-010
4.23749e-009
3.46426e-008
5.87098e-010
3.88574e-009
3.14439e-008
5.70559e-010
3.41782e-009
2.87632e-008
5.22216e-010
2.87535e-009
2.65977e-008
4.49198e-010
2.33187e-009
2.48954e-008
3.60425e-010
1.84035e-009
2.35812e-008
2.6402e-010
1.42612e-009
2.25761e-008
1.65909e-010
1.09296e-009
2.18097e-008
7.12281e-011
8.32642e-010
2.12252e-008
-1.5893e-011
6.32338e-010
2.07786e-008
-9.27822e-011
4.79248e-010
2.04368e-008
-1.57463e-010
3.62572e-010
2.01742e-008
-2.09321e-010
2.73894e-010
1.99711e-008
-2.48756e-010
2.06901e-010
1.98121e-008
-2.76992e-010
1.56405e-010
1.96854e-008
-2.95332e-010
1.18753e-010
1.95814e-008
-3.05365e-010
9.07608e-011
1.94932e-008
-3.085e-010
7.03073e-011
1.9415e-008
-3.06282e-010
5.54156e-011
1.93431e-008
-2.99814e-010
4.49399e-011
1.92743e-008
-2.90229e-010
3.76364e-011
1.92068e-008
-2.78291e-010
3.27845e-011
1.91388e-008
-2.64846e-010
2.95393e-011
1.90697e-008
-2.50382e-010
2.76124e-011
1.89987e-008
-2.35449e-010
2.65237e-011
1.89256e-008
-2.20323e-010
2.61293e-011
1.885e-008
-2.05357e-010
2.61311e-011
1.87717e-008
-1.90654e-010
2.66402e-011
1.86906e-008
-1.76385e-010
2.75697e-011
1.86066e-008
-1.62566e-010
2.89898e-011
1.85196e-008
-1.49297e-010
3.07548e-011
1.84297e-008
-1.36556e-010
3.29263e-011
1.83368e-008
-1.24396e-010
3.53506e-011
1.82413e-008
-1.12814e-010
3.79613e-011
1.81432e-008
-1.01862e-010
4.05465e-011
1.80429e-008
-9.15267e-011
4.31094e-011
1.79407e-008
-8.18198e-011
4.55305e-011
1.78369e-008
-7.2724e-011
4.78213e-011
1.77318e-008
-6.42432e-011
4.98823e-011
1.76257e-008
-5.63557e-011
5.18161e-011
1.7519e-008
-4.90437e-011
5.3574e-011
1.74118e-008
-4.22845e-011
5.52227e-011
1.73044e-008
-3.60558e-011
5.67054e-011
1.71969e-008
-3.03334e-011
5.81489e-011
1.70895e-008
-2.5081e-011
5.95024e-011
1.69822e-008
-2.02691e-011
6.08015e-011
1.68753e-008
-1.58355e-011
6.19349e-011
1.67689e-008
-1.17457e-011
6.29493e-011
1.66635e-008
-7.92921e-012
6.37391e-011
1.6559e-008
-4.35855e-012
6.43321e-011
1.64561e-008
-9.65058e-013
6.4661e-011
1.63547e-008
2.23621e-012
6.48607e-011
1.6255e-008
5.25053e-012
6.49571e-011
1.6157e-008
8.00063e-012
6.50774e-011
1.60606e-008
1.04907e-011
6.52306e-011
1.59654e-008
1.2655e-011
6.54824e-011
1.58717e-008
1.45448e-011
6.57505e-011
1.5779e-008
1.61566e-011
6.59834e-011
1.56879e-008
1.76204e-011
6.6081e-011
1.55981e-008
1.89438e-011
6.60208e-011
1.55102e-008
2.02191e-011
6.576e-011
1.54238e-008
2.13995e-011
6.53079e-011
1.53395e-008
2.25628e-011
6.47013e-011
1.5257e-008
2.36401e-011
6.39835e-011
1.51765e-008
2.47037e-011
6.31841e-011
1.50977e-008
2.57005e-011
6.23008e-011
1.50209e-008
2.67518e-011
6.13851e-011
1.49459e-008
2.78056e-011
6.04272e-011
1.48728e-008
2.89557e-011
5.94522e-011
1.48014e-008
3.01205e-011
5.8417e-011
1.4732e-008
3.13862e-011
5.73916e-011
1.46643e-008
3.26243e-011
5.63309e-011
1.45986e-008
3.38643e-011
5.529e-011
1.45344e-008
3.49524e-011
5.42104e-011
1.44722e-008
3.59395e-011
5.32076e-011
1.44115e-008
3.66714e-011
5.2214e-011
1.43524e-008
3.71951e-011
5.13024e-011
1.42944e-008
3.73892e-011
5.03656e-011
1.42379e-008
3.7381e-011
4.95116e-011
1.41823e-008
3.71109e-011
4.86024e-011
1.4128e-008
3.67526e-011
4.76945e-011
1.40748e-008
3.629e-011
4.66283e-011
1.40233e-008
3.59155e-011
4.55417e-011
1.39734e-008
3.55501e-011
4.43061e-011
1.39255e-008
3.52676e-011
4.30398e-011
1.38794e-008
3.49039e-011
4.16273e-011
1.38355e-008
3.44968e-011
4.02668e-011
1.37934e-008
3.3867e-011
3.88596e-011
1.37533e-008
3.30604e-011
3.75421e-011
1.37147e-008
3.19358e-011
3.624e-011
1.36781e-008
3.06222e-011
3.49175e-011
1.36425e-008
2.91008e-011
3.41151e-011
1.3609e-008
2.73418e-011
3.2167e-011
1.35735e-008
2.53628e-011
3.37263e-011
1.35436e-008
2.33098e-011
2.81637e-011
1.35207e-008
2.09891e-011
2.09636e-011
1.60887e-011
3.61269e-011
5.74249e-008
6.52446e-011
4.02944e-009
5.24698e-008
1.59836e-010
5.10809e-009
4.75898e-008
2.50688e-010
5.09761e-009
4.30085e-008
3.09381e-010
4.82559e-009
3.88247e-008
3.29957e-010
4.43299e-009
3.51637e-008
3.18898e-010
3.90605e-009
3.21057e-008
2.83838e-010
3.29241e-009
2.96478e-008
2.29892e-010
2.67655e-009
2.77279e-008
1.62007e-010
2.12039e-009
2.62565e-008
8.52947e-011
1.65438e-009
2.51405e-008
4.20289e-012
1.28307e-009
2.42973e-008
-7.66837e-011
9.96871e-010
2.366e-008
-1.53125e-010
7.80028e-010
2.31768e-008
-2.21613e-010
6.17088e-010
2.28084e-008
-2.79923e-010
4.95102e-010
2.25255e-008
-3.27022e-010
4.04197e-010
2.23063e-008
-3.62757e-010
3.36048e-010
2.21342e-008
-3.87685e-010
2.85105e-010
2.19968e-008
-4.02744e-010
2.46516e-010
2.18847e-008
-4.09203e-010
2.17578e-010
2.17907e-008
-4.08312e-010
1.95042e-010
2.17094e-008
-4.01397e-010
1.77626e-010
2.16368e-008
-3.89603e-010
1.63356e-010
2.15699e-008
-3.74072e-010
1.51983e-010
2.15064e-008
-3.55723e-010
1.42063e-010
2.14446e-008
-3.35442e-010
1.33733e-010
2.13834e-008
-3.13868e-010
1.26028e-010
2.13219e-008
-2.9162e-010
1.19337e-010
2.12594e-008
-2.6913e-010
1.12938e-010
2.11952e-008
-2.46823e-010
1.07276e-010
2.11291e-008
-2.24939e-010
1.01962e-010
2.10604e-008
-2.03716e-010
9.74684e-011
2.0989e-008
-1.83281e-010
9.34481e-011
2.09144e-008
-1.63784e-010
9.01966e-011
2.08367e-008
-1.45271e-010
8.74788e-011
2.07556e-008
-1.27816e-010
8.54442e-011
2.06713e-008
-1.11449e-010
8.38361e-011
2.05838e-008
-9.62194e-011
8.26687e-011
2.04933e-008
-8.21092e-011
8.18123e-011
2.04001e-008
-6.91146e-011
8.1258e-011
2.03043e-008
-5.722e-011
8.09239e-011
2.02063e-008
-4.64256e-011
8.07639e-011
2.01064e-008
-3.66982e-011
8.08226e-011
2.00049e-008
-2.80101e-011
8.09982e-011
1.9902e-008
-2.02953e-011
8.13337e-011
1.97982e-008
-1.3488e-011
8.17183e-011
1.96934e-008
-7.53954e-012
8.23301e-011
1.9588e-008
-2.391e-012
8.30025e-011
1.94821e-008
2.04479e-012
8.38328e-011
1.93759e-008
5.87828e-012
8.45655e-011
1.92697e-008
9.19609e-012
8.53707e-011
1.91637e-008
1.20745e-011
8.59648e-011
1.90581e-008
1.4576e-011
8.65522e-011
1.89534e-008
1.67704e-011
8.68574e-011
1.88498e-008
1.86755e-011
8.7214e-011
1.87473e-008
2.02959e-011
8.73647e-011
1.86459e-008
2.16017e-011
8.7679e-011
1.85458e-008
2.25995e-011
8.78439e-011
1.84467e-008
2.32748e-011
8.82346e-011
1.83487e-008
2.3673e-011
8.84307e-011
1.82517e-008
2.38412e-011
8.87692e-011
1.8156e-008
2.38835e-011
8.87784e-011
1.80616e-008
2.38448e-011
8.88578e-011
1.79687e-008
2.37869e-011
8.8529e-011
1.78774e-008
2.37138e-011
8.82512e-011
1.7788e-008
2.36717e-011
8.75705e-011
1.77003e-008
2.36359e-011
8.70098e-011
1.76144e-008
2.36385e-011
8.60764e-011
1.75304e-008
2.36757e-011
8.53094e-011
1.74483e-008
2.38171e-011
8.42088e-011
1.73681e-008
2.40468e-011
8.33341e-011
1.72897e-008
2.44021e-011
8.21266e-011
1.72132e-008
2.48516e-011
8.11481e-011
1.71386e-008
2.54265e-011
7.98457e-011
1.70658e-008
2.60474e-011
7.87931e-011
1.69949e-008
2.66952e-011
7.73973e-011
1.69258e-008
2.72798e-011
7.62571e-011
1.68587e-008
2.77994e-011
7.48128e-011
1.67932e-008
2.81528e-011
7.36691e-011
1.67295e-008
2.83316e-011
7.22136e-011
1.66671e-008
2.8278e-011
7.10483e-011
1.66063e-008
2.80595e-011
6.95756e-011
1.65467e-008
2.76665e-011
6.83777e-011
1.64886e-008
2.7202e-011
6.68114e-011
1.64319e-008
2.67007e-011
6.54577e-011
1.63769e-008
2.62791e-011
6.37422e-011
1.63238e-008
2.59031e-011
6.2248e-011
1.62726e-008
2.55853e-011
6.03754e-011
1.62235e-008
2.52282e-011
5.87081e-011
1.61765e-008
2.48165e-011
5.67187e-011
1.61316e-008
2.42291e-011
5.49926e-011
1.60887e-008
2.34563e-011
5.29578e-011
1.60477e-008
2.24208e-011
5.12613e-011
1.60088e-008
2.12024e-011
4.91039e-011
1.59712e-008
1.98109e-011
4.79201e-011
1.5936e-008
1.81955e-011
4.48582e-011
1.58983e-008
1.64722e-011
4.66372e-011
1.58674e-008
1.46935e-011
3.92507e-011
1.58449e-008
1.36472e-011
2.99837e-011
1.15922e-011
4.50753e-011
6.48542e-008
2.98195e-011
4.55941e-009
5.92022e-008
2.56658e-011
5.77433e-009
5.36333e-008
6.69785e-011
5.73981e-009
4.84299e-008
1.07509e-010
5.39236e-009
4.37157e-008
1.26897e-010
4.90579e-009
3.96301e-008
1.24297e-010
4.27161e-009
3.62562e-008
1.08999e-010
3.54434e-009
3.35798e-008
8.55419e-011
2.82062e-009
3.152e-008
5.29562e-011
2.1726e-009
2.99657e-008
1.0663e-011
1.63536e-009
2.8803e-008
-3.98415e-011
1.21486e-009
2.79323e-008
-9.60955e-011
8.98768e-010
2.72753e-008
-1.5482e-010
6.67093e-010
2.6774e-008
-2.12519e-010
5.00052e-010
2.63858e-008
-2.66134e-010
3.81078e-010
2.60801e-008
-3.13244e-010
2.97714e-010
2.58343e-008
-3.52345e-010
2.39864e-010
2.56319e-008
-3.82654e-010
2.01154e-010
2.54605e-008
-4.04125e-010
1.75364e-010
2.53111e-008
-4.1708e-010
1.59536e-010
2.5177e-008
-4.22225e-010
1.49354e-010
2.50533e-008
-4.20406e-010
1.43875e-010
2.49366e-008
-4.12668e-010
1.40201e-010
2.48245e-008
-4.0002e-010
1.38601e-010
2.47153e-008
-3.83503e-010
1.36947e-010
2.4608e-008
-3.64006e-010
1.36029e-010
2.45019e-008
-3.42365e-010
1.34332e-010
2.43967e-008
-3.19251e-010
1.32855e-010
2.42922e-008
-2.9529e-010
1.30466e-010
2.41879e-008
-2.70959e-010
1.28161e-010
2.4084e-008
-2.46675e-010
1.25202e-010
2.39801e-008
-2.22739e-010
1.2245e-010
2.38762e-008
-1.99395e-010
1.19306e-010
2.3772e-008
-1.76809e-010
1.16395e-010
2.36676e-008
-1.55121e-010
1.1333e-010
2.35629e-008
-1.34437e-010
1.10476e-010
2.34578e-008
-1.14812e-010
1.07532e-010
2.33522e-008
-9.62905e-011
1.04708e-010
2.32462e-008
-7.8905e-011
1.01882e-010
2.31397e-008
-6.27171e-011
9.91046e-011
2.30329e-008
-4.77087e-011
9.63669e-011
2.29258e-008
-3.38462e-011
9.36511e-011
2.28182e-008
-2.10839e-011
9.10346e-011