/*--------------------------------*- C++ -*----------------------------------*\
| =========                 |                                                 |
| \\      /  F ield         | OpenFOAM: The Open Source CFD Toolbox           |
|  \\    /   O peration     | Version:  5.x                                   |
|   \\  /    A nd           | Web:      www.OpenFOAM.org                      |
|    \\/     M anipulation  |                                                 |
\*---------------------------------------------------------------------------*/
/*   Windows 32 and 64 bit porting by blueCAPE: http://www.bluecape.com.pt   *\
|  Based on Windows porting (2.0.x v4) by Symscape: http://www.symscape.com   |
\*---------------------------------------------------------------------------*/
FoamFile
{
    version     2.0;
    format      ascii;
    class       volVectorField;
    location    "10";
    object      U;
}
// * * * * * * * * * * * * * * * * * * * * * * * * * * * * * * * * * * * * * //

dimensions      [0 1 -1 0 0 0 0];

internalField   nonuniform List<vector> 
10000
(
(9.21819 0.142718 0.142631)
(7.9226 0.261891 0.261691)
(6.56879 0.260584 0.2603)
(5.20197 0.208563 0.208239)
(4.06021 0.143111 0.142884)
(3.2404 0.0840822 0.0840445)
(2.69074 0.0423649 0.0424898)
(2.31791 0.0196531 0.0198577)
(2.04682 0.0106006 0.0108197)
(1.83321 0.00822371 0.00843482)
(1.6572 0.00768114 0.00788811)
(1.51192 0.00694048 0.00715134)
(1.39466 0.00572667 0.00594179)
(1.30265 0.0043629 0.00457472)
(1.23219 0.00314704 0.00334591)
(1.17912 0.0022066 0.00238447)
(1.13951 0.0015403 0.00169349)
(1.10994 0.00109629 0.0012248)
(1.08773 0.000808636 0.000915422)
(1.07079 0.000631223 0.000719911)
(1.05758 0.000523173 0.000597599)
(1.04697 0.000459746 0.000522527)
(1.03813 0.000421369 0.00047413)
(1.03049 0.000401457 0.000444704)
(1.02363 0.000389761 0.000423848)
(1.01726 0.000380701 0.000405999)
(1.01119 0.000369605 0.000386752)
(1.00528 0.000356981 0.000367057)
(0.999442 0.000340695 0.000345403)
(0.993607 0.000319732 0.000320836)
(0.987704 0.000299055 0.000297514)
(0.981671 0.000283972 0.000280172)
(0.975433 0.000278799 0.000272993)
(0.968955 0.00028064 0.000273532)
(0.962208 0.00029296 0.000284946)
(0.955201 0.000311934 0.000303517)
(0.947945 0.000335726 0.000327616)
(0.940516 0.000353408 0.000346828)
(0.932974 0.000368217 0.00036354)
(0.925386 0.000376348 0.000373325)
(0.917778 0.000382347 0.000380329)
(0.910201 0.000379914 0.000378825)
(0.902668 0.000378593 0.000377828)
(0.89519 0.000375946 0.000374742)
(0.887734 0.000378228 0.000375699)
(0.88031 0.000377333 0.00037307)
(0.872907 0.000382121 0.000374673)
(0.865525 0.000386793 0.000374084)
(0.858136 0.000395798 0.000375645)
(0.85077 0.000397881 0.000369375)
(0.84345 0.000400383 0.000363056)
(0.836227 0.000395761 0.00035022)
(0.829127 0.000389814 0.000337825)
(0.822218 0.000374957 0.00031989)
(0.815529 0.000363911 0.00030873)
(0.809055 0.000354054 0.000300983)
(0.802719 0.000353435 0.000303944)
(0.796458 0.000353197 0.000308925)
(0.790196 0.000360338 0.000322349)
(0.783889 0.000364625 0.000333858)
(0.777508 0.000368302 0.000346018)
(0.771118 0.000361153 0.000349188)
(0.76479 0.000353088 0.00035228)
(0.758591 0.000339837 0.000349497)
(0.752525 0.000329203 0.000347558)
(0.746604 0.000315106 0.000340027)
(0.740808 0.00030698 0.000335762)
(0.735117 0.000298464 0.000328101)
(0.729497 0.000293738 0.000321778)
(0.723958 0.000285743 0.00031034)
(0.718517 0.000282814 0.00030197)
(0.713188 0.000279665 0.000291009)
(0.707966 0.000280554 0.00028263)
(0.702874 0.00027979 0.000272524)
(0.697927 0.000284267 0.000268801)
(0.693125 0.000288195 0.000266473)
(0.688437 0.000294035 0.000269193)
(0.683853 0.000296807 0.000272211)
(0.679362 0.000302699 0.000281025)
(0.674935 0.000306923 0.000289057)
(0.670528 0.000310997 0.000296807)
(0.666114 0.000310407 0.000298408)
(0.66169 0.000309274 0.000297792)
(0.657263 0.000303756 0.000290656)
(0.652866 0.000295902 0.00028041)
(0.648573 0.000285032 0.000267065)
(0.64447 0.000276907 0.000257139)
(0.640604 0.000270056 0.00024892)
(0.636979 0.000265359 0.000244222)
(0.633577 0.000261565 0.000241552)
(0.630364 0.000261456 0.000243915)
(0.627293 0.000261962 0.000247175)
(0.624309 0.000264341 0.000252958)
(0.621423 0.000258738 0.000250469)
(0.618535 0.000271095 0.000265602)
(0.615804 0.000240938 0.000236422)
(0.612908 0.000292378 0.000288129)
(0.61007 0.000193777 0.000188864)
(0.608234 7.96913e-005 7.49924e-005)
(0.605912 0.000316503 0.000312901)
(9.75307 0.215056 0.152528)
(9.37016 0.407233 0.307613)
(8.78267 0.448473 0.34846)
(7.96796 0.428317 0.327616)
(7.09047 0.374708 0.275615)
(6.26143 0.302375 0.212785)
(5.52229 0.229619 0.152233)
(4.88845 0.169509 0.102268)
(4.36202 0.125331 0.065892)
(3.93356 0.0942709 0.0416557)
(3.58799 0.0720766 0.0263227)
(3.30996 0.0553892 0.0169137)
(3.0863 0.0422269 0.0112782)
(2.90631 0.0316298 0.00800345)
(2.76143 0.0231625 0.00618692)
(2.64465 0.0165725 0.00523715)
(2.5503 0.0115889 0.00476914)
(2.47374 0.00792472 0.00453254)
(2.41126 0.00530699 0.00439071)
(2.35985 0.0035212 0.00426423)
(2.31711 0.00236686 0.00411693)
(2.28113 0.0016917 0.00392813)
(2.25037 0.00135478 0.0037033)
(2.22364 0.0012678 0.00344979)
(2.20001 0.00134258 0.00318254)
(2.17878 0.00152372 0.00290313)
(2.15935 0.00175429 0.00262401)
(2.14132 0.00201165 0.00234843)
(2.12433 0.00226774 0.00208456)
(2.10813 0.00251454 0.00182859)
(2.09247 0.0027429 0.00159177)
(2.07716 0.00296145 0.001379)
(2.06203 0.00317077 0.00120195)
(2.04697 0.0033702 0.00105765)
(2.03185 0.00355645 0.000953826)
(2.01663 0.00372675 0.000885738)
(2.00126 0.0038733 0.000850873)
(1.98578 0.00398292 0.000832135)
(1.97021 0.0040568 0.000827269)
(1.95463 0.00409732 0.000826702)
(1.93907 0.00411281 0.000829914)
(1.92358 0.00410097 0.000827411)
(1.90819 0.00407654 0.000825639)
(1.89292 0.00404329 0.000822863)
(1.87776 0.0040111 0.000823607)
(1.86272 0.00397055 0.000821968)
(1.84778 0.00393336 0.0008249)
(1.83296 0.00389524 0.000829498)
(1.81821 0.00386201 0.000836949)
(1.80358 0.00381626 0.000839027)
(1.78907 0.00376649 0.000838661)
(1.77475 0.00370283 0.000831075)
(1.76063 0.00363357 0.000816155)
(1.74681 0.00354699 0.00079128)
(1.7333 0.00346573 0.000765173)
(1.72014 0.00339132 0.000742606)
(1.70726 0.00334016 0.000727951)
(1.69459 0.0032966 0.000722299)
(1.68206 0.0032708 0.000728356)
(1.6696 0.00324264 0.000742965)
(1.65716 0.00321193 0.000758936)
(1.64479 0.00315481 0.000772086)
(1.63255 0.00308942 0.000781031)
(1.62051 0.00301105 0.000785883)
(1.60871 0.00293858 0.000781902)
(1.59716 0.00285979 0.000772315)
(1.58586 0.00279544 0.000757563)
(1.57478 0.00273331 0.000741692)
(1.56389 0.00268314 0.00071855)
(1.55319 0.00262548 0.000694934)
(1.54269 0.0025795 0.000669809)
(1.53241 0.00253369 0.000649641)
(1.52234 0.00250044 0.000626424)
(1.51249 0.00246177 0.000609725)
(1.5029 0.00243601 0.000595565)
(1.49354 0.00240868 0.00059069)
(1.48442 0.00238937 0.000583131)
(1.4755 0.00235946 0.000583335)
(1.46679 0.00233756 0.000584445)
(1.45824 0.00231082 0.000593373)
(1.44982 0.00228929 0.000594266)
(1.44149 0.0022544 0.000597025)
(1.43323 0.00222106 0.000591542)
(1.42504 0.00217399 0.000587709)
(1.41696 0.00212282 0.000572772)
(1.40904 0.00205423 0.000564397)
(1.40141 0.00198967 0.000554822)
(1.3941 0.00192206 0.000554671)
(1.38716 0.00186424 0.000545996)
(1.38057 0.00180352 0.000542886)
(1.37431 0.0017549 0.000534137)
(1.36833 0.00170445 0.000531892)
(1.36256 0.00166096 0.000521025)
(1.357 0.00160218 0.000505479)
(1.35155 0.00156894 0.00050479)
(1.34638 0.00148349 0.000443449)
(1.3411 0.00147781 0.000565633)
(1.33597 0.00131886 0.000274765)
(1.33213 0.000933828 9.22993e-005)
(1.32714 0.00112519 0.000745378)
(9.61933 0.10598 0.149316)
(9.01904 0.213815 0.297115)
(8.42247 0.253092 0.328574)
(7.76295 0.267207 0.305705)
(7.11578 0.264538 0.261693)
(6.51629 0.24421 0.210299)
(5.96528 0.211868 0.158019)
(5.46764 0.175696 0.110265)
(5.03108 0.140991 0.0709822)
(4.65789 0.109673 0.0413839)
(4.34482 0.0821854 0.0206421)
(4.08537 0.0587079 0.0071732)
(3.87174 0.039299 -0.000741552)
(3.69608 0.0237867 -0.0046872)
(3.55116 0.0118037 -0.00597937)
(3.43073 0.00278616 -0.00566984)
(3.33014 -0.00384639 -0.00451496)
(3.24553 -0.00858483 -0.00300652)
(3.17371 -0.0118177 -0.00144143)
(3.11214 -0.0138493 8.83983e-007)
(3.05878 -0.0149294 0.00124002)
(3.01204 -0.0152653 0.00223823)
(2.97063 -0.0150323 0.00300778)
(2.93357 -0.0143687 0.00356671)
(2.90005 -0.0133985 0.00395057)
(2.86947 -0.0122253 0.0041795)
(2.84129 -0.0109371 0.00428845)
(2.81514 -0.00959362 0.00429608)
(2.79067 -0.00824426 0.00422837)
(2.76761 -0.00691973 0.00409519)
(2.7457 -0.00564087 0.00392341)
(2.72473 -0.00441118 0.00372868)
(2.70447 -0.00323545 0.00353315)
(2.68475 -0.00211843 0.00334224)
(2.66539 -0.00106732 0.00317204)
(2.64628 -8.77787e-005 0.00302298)
(2.62732 0.00080862 0.00289838)
(2.60847 0.00161106 0.00278727)
(2.5897 0.00231771 0.00269157)
(2.57103 0.00293317 0.00260326)
(2.55246 0.00346383 0.00252205)
(2.53402 0.00391521 0.00243937)
(2.51572 0.00429974 0.00236025)
(2.49758 0.00462835 0.00228198)
(2.47958 0.00490851 0.00220761)
(2.46172 0.0051426 0.00213355)
(2.444 0.00533963 0.00206654)
(2.4264 0.0055046 0.00200494)
(2.40891 0.00564009 0.00194944)
(2.39153 0.00574358 0.00189479)
(2.37428 0.00582084 0.00184241)
(2.3572 0.00587443 0.00178767)
(2.34033 0.00590894 0.00172778)
(2.32373 0.00592743 0.00166148)
(2.30745 0.00594306 0.00159412)
(2.29151 0.00596131 0.0015307)
(2.27588 0.00598279 0.00147393)
(2.26051 0.00599923 0.00142917)
(2.24532 0.00600765 0.00139836)
(2.23026 0.00599845 0.00138158)
(2.21528 0.00596625 0.00137069)
(2.20038 0.00590827 0.00136508)
(2.18564 0.00583602 0.00135885)
(2.1711 0.0057552 0.00135142)
(2.15682 0.00567064 0.00133346)
(2.14281 0.00558209 0.00131041)
(2.1291 0.00549672 0.00127883)
(2.11565 0.00541327 0.00124484)
(2.10245 0.00533149 0.00120049)
(2.08949 0.00525062 0.0011576)
(2.07679 0.00518026 0.00111255)
(2.06435 0.00512224 0.00107442)
(2.05217 0.00507749 0.00103225)
(2.04025 0.00504289 0.000999053)
(2.02863 0.005021 0.000966523)
(2.01729 0.00500406 0.000943313)
(2.00624 0.00498413 0.000914778)
(1.99545 0.0049537 0.000896291)
(1.98493 0.00491518 0.000878105)
(1.97463 0.00486401 0.000870441)
(1.96452 0.0047962 0.000855601)
(1.95455 0.00470861 0.000848738)
(1.94472 0.00460737 0.000836491)
(1.93501 0.00449451 0.000831093)
(1.92545 0.00437507 0.000815687)
(1.91608 0.00425485 0.000810442)
(1.90701 0.00414444 0.000802046)
(1.89829 0.00404332 0.000801321)
(1.88996 0.00394664 0.000785407)
(1.88203 0.00384753 0.00077129)
(1.87449 0.0037447 0.000744426)
(1.86727 0.00363187 0.000720875)
(1.86036 0.00350564 0.000684808)
(1.85373 0.00335933 0.00064669)
(1.84726 0.0032192 0.000631723)
(1.84115 0.00302529 0.000555475)
(1.8349 0.0028757 0.000722004)
(1.8289 0.00259357 0.000367115)
(1.82434 0.00203426 0.000216085)
(1.81744 0.00196815 0.00118122)
(9.6092 0.060061 0.148951)
(8.94688 0.150742 0.295682)
(8.27895 0.196732 0.32243)
(7.5611 0.214183 0.296769)
(6.87609 0.214763 0.252306)
(6.27152 0.203288 0.201717)
(5.75137 0.182849 0.150979)
(5.31033 0.157023 0.105059)
(4.94186 0.12916 0.0672648)
(4.63718 0.101276 0.0384139)
(4.38677 0.0744968 0.0176171)
(4.18189 0.049831 0.00347375)
(4.01482 0.0281733 -0.00544349)
(3.87868 0.0100437 -0.0104443)
(3.76741 -0.00453816 -0.012669)
(3.67625 -0.015938 -0.0130333)
(3.60079 -0.0245929 -0.0122098)
(3.53748 -0.0309522 -0.0107206)
(3.48349 -0.0353931 -0.00891401)
(3.43662 -0.0382811 -0.00704019)
(3.39517 -0.0398971 -0.00523707)
(3.3579 -0.0405141 -0.00360475)
(3.32381 -0.0403273 -0.00216745)
(3.29224 -0.0395304 -0.000948687)
(3.26266 -0.0382543 6.9141e-005)
(3.23471 -0.0366408 0.000882693)
(3.20809 -0.0347789 0.00152599)
(3.18262 -0.0327657 0.00200787)
(3.15811 -0.0306577 0.00236204)
(3.13448 -0.028521 0.00259768)
(3.11158 -0.0263777 0.00275027)
(3.08932 -0.0242535 0.00283382)
(3.06759 -0.0221524 0.00287843)
(3.0463 -0.0200952 0.00289039)
(3.02534 -0.0180881 0.00289356)
(3.00465 -0.0161497 0.00288969)
(2.98417 -0.0142905 0.00288819)
(2.96387 -0.0125303 0.00288077)
(2.94376 -0.0108742 0.00287416)
(2.92383 -0.00932771 0.0028613)
(2.9041 -0.00788889 0.00284426)
(2.8846 -0.00655757 0.00281626)
(2.86532 -0.00532724 0.0027837)
(2.84627 -0.00419253 0.00274379)
(2.82744 -0.00314924 0.00270011)
(2.80883 -0.00219345 0.0026502)
(2.79042 -0.00131882 0.00260103)
(2.77219 -0.00051855 0.00255214)
(2.75412 0.000209328 0.00250459)
(2.73621 0.000870703 0.00245526)
(2.71847 0.00147094 0.00240563)
(2.70091 0.00201921 0.00235219)
(2.68358 0.0025192 0.00229146)
(2.66651 0.00298277 0.00222328)
(2.64977 0.00341557 0.00215139)
(2.63336 0.00382533 0.00208119)
(2.61726 0.00420311 0.00201464)
(2.60143 0.00454715 0.00195907)
(2.5858 0.0048463 0.00191582)
(2.57032 0.00510172 0.00188715)
(2.55494 0.00530559 0.00186461)
(2.53966 0.00547149 0.00184948)
(2.52455 0.00560397 0.00183381)
(2.50963 0.00571898 0.00181758)
(2.49495 0.005811 0.00178971)
(2.48054 0.00589119 0.0017568)
(2.46641 0.00595428 0.00171332)
(2.45255 0.00601086 0.00166663)
(2.43896 0.00605168 0.00160816)
(2.4256 0.00609246 0.00155162)
(2.41251 0.00613153 0.00149206)
(2.39968 0.00618465 0.00143979)
(2.38711 0.00624123 0.0013832)
(2.37481 0.00631314 0.00133649)
(2.3628 0.00638697 0.00128989)
(2.35107 0.00646614 0.00125304)
(2.33963 0.00652683 0.00121119)
(2.32845 0.00657431 0.00118083)
(2.31754 0.00659248 0.00115094)
(2.30686 0.00658835 0.00113263)
(2.29639 0.00654284 0.00110847)
(2.28607 0.00646959 0.00109468)
(2.27591 0.00636187 0.00107693)
(2.26587 0.00624113 0.00106744)
(2.256 0.00610368 0.00104854)
(2.24633 0.0059754 0.00103943)
(2.23694 0.00585267 0.00102538)
(2.22789 0.00574767 0.00101657)
(2.21922 0.00563831 0.000991039)
(2.21093 0.0055285 0.000965546)
(2.20304 0.00539799 0.000925826)
(2.19548 0.00525187 0.000887467)
(2.18824 0.00507147 0.000837285)
(2.18131 0.00486683 0.000783334)
(2.17455 0.00464311 0.000759449)
(2.16819 0.00437142 0.000659991)
(2.16165 0.00408617 0.000835331)
(2.15535 0.00374052 0.000417324)
(2.15082 0.00312481 0.000111758)
(2.14313 0.00259379 0.00130187)
(9.60592 0.0405513 0.14898)
(8.92371 0.111039 0.297236)
(8.22453 0.155327 0.3255)
(7.47669 0.175168 0.300125)
(6.76281 0.1782 0.255102)
(6.13197 0.16998 0.203329)
(5.59511 0.153685 0.150994)
(5.15172 0.131956 0.103499)
(4.79478 0.10748 0.0644581)
(4.51183 0.0821966 0.0347703)
(4.28885 0.0572992 0.0134902)
(4.1133 0.0337943 -0.000919359)
(3.97498 0.0126073 -0.0100092)
(3.86591 -0.00559873 -0.0151932)
(3.78002 -0.0206298 -0.0176132)
(3.71209 -0.0326058 -0.0181206)
(3.6579 -0.041812 -0.0173762)
(3.61407 -0.0486437 -0.015874)
(3.57788 -0.0534863 -0.0139683)
(3.54725 -0.0567013 -0.0119029)
(3.52059 -0.0585901 -0.00984376)
(3.49667 -0.0594224 -0.00789229)
(3.4746 -0.0594086 -0.00610299)
(3.45373 -0.058738 -0.00450037)
(3.43361 -0.0575568 -0.00309344)
(3.41395 -0.0560023 -0.00188331)
(3.39453 -0.0541714 -0.000860119)
(3.37526 -0.052153 -1.25325e-005)
(3.35607 -0.0500085 0.000673046)
(3.33694 -0.0477978 0.00120973)
(3.31781 -0.0455488 0.00162516)
(3.29866 -0.0432851 0.00194289)
(3.27945 -0.0410152 0.0021872)
(3.26015 -0.0387568 0.0023735)
(3.24072 -0.0365173 0.00252251)
(3.22116 -0.0343118 0.00264362)
(3.20145 -0.0321513 0.00274546)
(3.18162 -0.0300521 0.00282715)
(3.1617 -0.0280215 0.0028959)
(3.14174 -0.0260672 0.00295013)
(3.12177 -0.0241921 0.00299215)
(3.10185 -0.0223989 0.00301813)
(3.08201 -0.0206855 0.00303419)
(3.0623 -0.0190517 0.00303837)
(3.04272 -0.017498 0.00303345)
(3.02332 -0.0160234 0.00301722)
(3.00408 -0.0146247 0.00299701)
(2.98503 -0.0132978 0.00297163)
(2.96614 -0.0120424 0.00294399)
(2.94743 -0.0108526 0.00291069)
(2.92891 -0.00972272 0.00287542)
(2.91061 -0.00864378 0.002833)
(2.89256 -0.00761189 0.00278353)
(2.87481 -0.00661834 0.00272456)
(2.8574 -0.00566168 0.00266274)
(2.84035 -0.00474228 0.0025986)
(2.82364 -0.00387196 0.00253776)
(2.80724 -0.00305643 0.00248238)
(2.79109 -0.0023055 0.0024384)
(2.77515 -0.00161936 0.00240276)
(2.75938 -0.000999065 0.00237457)
(2.74377 -0.000429746 0.0023497)
(2.72836 9.69009e-005 0.00232789)
(2.7132 0.000592468 0.00230207)
(2.6983 0.00105469 0.0022694)
(2.6837 0.0014906 0.00222803)
(2.66939 0.00189695 0.00218014)
(2.65539 0.00227934 0.00212361)
(2.64168 0.00263486 0.0020597)
(2.62824 0.00297703 0.00199251)
(2.61509 0.00330865 0.0019267)
(2.60223 0.00364006 0.00186206)
(2.58965 0.00396665 0.00179832)
(2.57735 0.00429571 0.00173875)
(2.56534 0.00461722 0.00168446)
(2.55363 0.00492721 0.00163383)
(2.54221 0.00520751 0.00158474)
(2.53107 0.00545706 0.00154155)
(2.5202 0.00566249 0.00150463)
(2.50957 0.00582255 0.00147254)
(2.49916 0.00592526 0.00144133)
(2.48893 0.00598039 0.00141433)
(2.47886 0.00598924 0.00138986)
(2.46894 0.00597036 0.00136698)
(2.45919 0.00593119 0.00134181)
(2.44965 0.00589495 0.00131999)
(2.44039 0.00586356 0.00129917)
(2.43145 0.00584083 0.00127658)
(2.42287 0.00580957 0.0012445)
(2.41465 0.00576522 0.00120621)
(2.4068 0.00569 0.0011597)
(2.3993 0.00558102 0.00110679)
(2.3921 0.00542466 0.00104884)
(2.38523 0.00522786 0.000977736)
(2.37851 0.00500039 0.000949418)
(2.37225 0.00471761 0.00081916)
(2.36576 0.00440036 0.00100572)
(2.35946 0.00404815 0.000515158)
(2.3552 0.00351872 5.06892e-005)
(2.34741 0.00281059 0.00139066)
(9.60402 0.0271092 0.148984)
(8.90847 0.0738536 0.298207)
(8.18796 0.106887 0.327124)
(7.42061 0.12405 0.301457)
(6.69254 0.128839 0.255682)
(6.05194 0.125047 0.203022)
(5.5099 0.114758 0.149449)
(5.06687 0.099659 0.100474)
(4.71598 0.0817509 0.0599403)
(4.44379 0.0626379 0.0289601)
(4.23485 0.0433802 0.0066867)
(4.07513 0.0248773 -0.00839478)
(3.95309 0.00785433 -0.0178776)
(3.85973 -0.0072409 -0.0232129)
(3.78826 -0.0200504 -0.025608)
(3.73342 -0.0304245 -0.0260111)
(3.69117 -0.0384538 -0.0251242)
(3.65834 -0.044369 -0.0234792)
(3.63243 -0.0484446 -0.0214337)
(3.61152 -0.0509732 -0.0192471)
(3.59408 -0.0522386 -0.0170683)
(3.57896 -0.052506 -0.015001)
(3.56529 -0.0519911 -0.0130872)
(3.55245 -0.0508817 -0.0113631)
(3.53997 -0.0493332 -0.00983205)
(3.52756 -0.0474826 -0.00850112)
(3.51499 -0.0454301 -0.00735112)
(3.50212 -0.0432574 -0.00637468)
(3.48887 -0.041022 -0.00555091)
(3.47519 -0.0387717 -0.00486877)
(3.46104 -0.0365318 -0.00429973)
(3.44639 -0.0343214 -0.00382609)
(3.43121 -0.0321493 -0.00342417)
(3.41549 -0.0300269 -0.0030821)
(3.39922 -0.0279565 -0.00278014)
(3.38241 -0.0259454 -0.00251087)
(3.36508 -0.024 -0.00226511)
(3.34725 -0.0221294 -0.00204284)
(3.32899 -0.0203365 -0.00183649)
(3.31035 -0.0186252 -0.00164748)
(3.29137 -0.0169968 -0.00147246)
(3.27214 -0.0154541 -0.00131445)
(3.2527 -0.0139949 -0.00116766)
(3.23311 -0.0126191 -0.00103503)
(3.21341 -0.0113258 -0.000913521)
(3.19366 -0.0101141 -0.000804985)
(3.17389 -0.0089799 -0.000702151)
(3.15411 -0.00792006 -0.000606609)
(3.13436 -0.00693011 -0.000515072)
(3.11465 -0.00600318 -0.000430346)
(3.09503 -0.00513051 -0.000348481)
(3.07553 -0.00430321 -0.00027424)
(3.0562 -0.00351354 -0.000206229)
(3.0371 -0.00275334 -0.000147136)
(3.01829 -0.00202107 -9.1579e-005)
(2.99979 -0.00132132 -4.01625e-005)
(2.98161 -0.000664821 1.14717e-005)
(2.96373 -5.89657e-005 6.51631e-005)
(2.94612 0.000488504 0.000125152)
(2.92875 0.000978068 0.000189034)
(2.91161 0.00141444 0.000255752)
(2.8947 0.00181302 0.000323868)
(2.87805 0.00218407 0.000392187)
(2.86169 0.00253625 0.000456407)
(2.84565 0.00286967 0.000512373)
(2.82994 0.00318884 0.000560119)
(2.81459 0.00349105 0.000598601)
(2.79959 0.00377882 0.000627877)
(2.78494 0.00405238 0.000646715)
(2.77063 0.00432304 0.000661339)
(2.75666 0.00459378 0.000672556)
(2.74304 0.00487083 0.000683014)
(2.72975 0.00515158 0.000689731)
(2.7168 0.00544007 0.000698897)
(2.70419 0.00572619 0.000707728)
(2.69191 0.0060025 0.000718808)
(2.67997 0.00625335 0.000727044)
(2.66834 0.00647475 0.000740281)
(2.65704 0.00665277 0.000754187)
(2.64601 0.00678223 0.000772019)
(2.63526 0.00685412 0.000786074)
(2.62473 0.00687721 0.000804146)
(2.61442 0.00685508 0.000819498)
(2.60432 0.00680541 0.000836539)
(2.59443 0.00673987 0.000847167)
(2.58479 0.00668053 0.000861711)
(2.57545 0.00662906 0.000872443)
(2.56644 0.00658554 0.000882443)
(2.55779 0.00653398 0.000879836)
(2.5495 0.00646692 0.0008725)
(2.54159 0.00636582 0.000852613)
(2.53403 0.0062249 0.000826755)
(2.52679 0.00603143 0.000792138)
(2.51991 0.00579383 0.000742632)
(2.5132 0.0055228 0.000736663)
(2.50698 0.00519689 0.000607697)
(2.50053 0.00483432 0.000827617)
(2.49425 0.00444958 0.000288293)
(2.49022 0.00399262 -0.000301236)
(2.48286 0.00311533 0.00115395)
(9.60271 0.0168572 0.148876)
(8.89887 0.0438727 0.29843)
(8.16568 0.0644677 0.327883)
(7.38494 0.0748037 0.302639)
(6.64536 0.075873 0.25718)
(5.99578 0.0705994 0.204841)
(5.44756 0.0609161 0.151571)
(5.00135 0.0478567 0.102874)
(4.65003 0.0325281 0.0626561)
(4.37945 0.0160114 0.0320935)
(4.17339 -0.000818811 0.0103533)
(4.01723 -0.0170644 -0.00408972)
(3.899 -0.0319487 -0.0128725)
(3.80935 -0.044887 -0.0175146)
(3.74109 -0.0555516 -0.0192669)
(3.68882 -0.0638461 -0.0191017)
(3.6485 -0.069836 -0.0177819)
(3.61707 -0.0737277 -0.0158315)
(3.59221 -0.0757688 -0.0136377)
(3.57215 -0.0762578 -0.011412)
(3.55558 -0.0754664 -0.00932983)
(3.54147 -0.0736816 -0.00744615)
(3.52907 -0.0711262 -0.00582065)
(3.5178 -0.0680196 -0.00442583)
(3.50726 -0.0645205 -0.00328091)
(3.49711 -0.06079 -0.0023373)
(3.48714 -0.0569291 -0.00159644)
(3.47717 -0.0530427 -0.00100655)
(3.46709 -0.0491903 -0.000567021)
(3.45679 -0.0454391 -0.000232345)
(3.4462 -0.0418144 3.91151e-006)
(3.43524 -0.0383493 0.000181262)
(3.42385 -0.0350502 0.000303518)
(3.41198 -0.0319369 0.000398587)
(3.3996 -0.0290054 0.000470567)
(3.38668 -0.026262 0.000536165)
(3.37321 -0.0237012 0.000594535)
(3.35922 -0.0213293 0.000653676)
(3.34472 -0.019136 0.000714379)
(3.32975 -0.017118 0.000778847)
(3.31434 -0.0152637 0.000845767)
(3.29856 -0.0135705 0.000913603)
(3.28242 -0.012029 0.000985377)
(3.26601 -0.0106344 0.00105503)
(3.24936 -0.00937248 0.00112374)
(3.23252 -0.00823459 0.00118621)
(3.21552 -0.00721126 0.00125082)
(3.19842 -0.00629602 0.00131044)
(3.1812 -0.00547567 0.001371)
(3.16393 -0.00473509 0.00142328)
(3.14662 -0.00406096 0.00147673)
(3.12933 -0.00344204 0.0015197)
(3.11208 -0.00286809 0.00156176)
(3.09496 -0.00232844 0.00159159)
(3.07797 -0.00182123 0.00162319)
(3.06119 -0.00134857 0.00164405)
(3.04458 -0.000919788 0.00166926)
(3.02819 -0.000537093 0.00168648)
(3.01197 -0.000207292 0.00171281)
(2.99593 7.55344e-005 0.00173164)
(2.98005 0.000316614 0.00175913)
(2.96436 0.000535766 0.00177825)
(2.94886 0.000739578 0.00180644)
(2.93362 0.000940475 0.00182234)
(2.91861 0.00113576 0.00184248)
(2.9039 0.00133499 0.00184684)
(2.88945 0.00153031 0.00185495)
(2.87534 0.00172918 0.00184515)
(2.86149 0.00192705 0.00183895)
(2.84798 0.00213995 0.00181825)
(2.83475 0.00236241 0.00180668)
(2.82185 0.00260499 0.0017821)
(2.80922 0.00285792 0.00176682)
(2.79693 0.00313078 0.00174031)
(2.78492 0.00340478 0.00172536)
(2.77323 0.00367951 0.00169819)
(2.76183 0.00393264 0.00168184)
(2.75075 0.00416758 0.00165583)
(2.73994 0.00436098 0.00164359)
(2.72943 0.00451535 0.00162045)
(2.71916 0.00461421 0.00160852)
(2.70915 0.00467492 0.00158598)
(2.69934 0.00469144 0.00157539)
(2.68977 0.00468918 0.00155249)
(2.6804 0.00467072 0.00153964)
(2.67131 0.00466522 0.00151723)
(2.66249 0.00466301 0.00150647)
(2.654 0.00467228 0.00148201)
(2.64582 0.00466892 0.00146176)
(2.638 0.00465477 0.0014239)
(2.63051 0.00460158 0.00138832)
(2.62337 0.00451221 0.00133275)
(2.61653 0.00436587 0.00128384)
(2.61006 0.00418096 0.00120291)
(2.60375 0.00395697 0.00118413)
(2.59799 0.00368868 0.00100617)
(2.59194 0.00338676 0.00123084)
(2.58609 0.00307274 0.000599462)
(2.58247 0.0027846 -0.000131755)
(2.57581 0.00222211 0.00126393)
(9.60201 0.00666265 0.14879)
(8.89137 0.0227072 0.298134)
(8.15065 0.0411577 0.32662)
(7.36323 0.0556799 0.299402)
(6.62148 0.0628783 0.251744)
(5.97606 0.0627624 0.197456)
(5.43778 0.0574802 0.142601)
(5.00531 0.0490166 0.0925773)
(4.66961 0.0385212 0.0512639)
(4.41513 0.0266919 0.0198716)
(4.22431 0.0140134 -0.00229915)
(4.08129 0.000946964 -0.0167088)
(3.97352 -0.011925 -0.025016)
(3.89155 -0.0240368 -0.0288187)
(3.82843 -0.0349372 -0.0295011)
(3.7791 -0.0443281 -0.0281608)
(3.73984 -0.0520555 -0.0256593)
(3.70789 -0.0580748 -0.0225669)
(3.68124 -0.0624272 -0.0193297)
(3.65832 -0.0652167 -0.0161696)
(3.63806 -0.0665842 -0.0132936)
(3.61959 -0.0666963 -0.010729)
(3.60237 -0.0657297 -0.00855222)
(3.58593 -0.0638655 -0.00670187)
(3.57004 -0.0612757 -0.00520475)
(3.55445 -0.05812 -0.00397594)
(3.5391 -0.0545364 -0.00302345)
(3.52387 -0.0506489 -0.00226469)
(3.50877 -0.0465642 -0.00170446)
(3.49372 -0.0423751 -0.00127209)
(3.47873 -0.0381538 -0.000969073)
(3.46375 -0.0339608 -0.00074157)
(3.44879 -0.0298442 -0.000594596)
(3.4338 -0.0258428 -0.000489339)
(3.41879 -0.0219852 -0.00042745)
(3.40372 -0.0182977 -0.000385089)
(3.3886 -0.0147992 -0.000365577)
(3.37342 -0.011503 -0.000355577)
(3.35817 -0.00841823 -0.000355547)
(3.34285 -0.00555372 -0.000359882)
(3.32749 -0.0029148 -0.000365685)
(3.31207 -0.000499593 -0.00037336)
(3.29659 0.00169602 -0.000380957)
(3.28107 0.0036749 -0.000392737)
(3.26548 0.00544038 -0.000400859)
(3.24986 0.00700066 -0.000414178)
(3.23418 0.00836578 -0.000424475)
(3.2185 0.00954756 -0.00044195)
(3.20276 0.0105595 -0.000452149)
(3.18703 0.0114173 -0.000466048)
(3.17126 0.0121376 -0.000468948)
(3.15552 0.0127379 -0.000479149)
(3.1398 0.0132335 -0.00048076)
(3.12416 0.0136371 -0.000491103)
(3.10859 0.0139538 -0.000489419)
(3.09316 0.0141844 -0.000495846)
(3.0778 0.0143283 -0.000488598)
(3.0626 0.0143881 -0.000489536)
(3.04748 0.0143662 -0.000474043)
(3.0325 0.0142704 -0.00046686)
(3.01761 0.0141138 -0.000441725)
(3.00287 0.0139146 -0.000425493)
(2.98824 0.0136858 -0.000390119)
(2.97382 0.0134376 -0.000366254)
(2.95954 0.013177 -0.000325774)
(2.94551 0.0129117 -0.000300308)
(2.93165 0.0126433 -0.000258758)
(2.91807 0.0123751 -0.000234682)
(2.90468 0.0121119 -0.00019449)
(2.89158 0.011863 -0.000171047)
(2.87868 0.011631 -0.000128847)
(2.86608 0.0114182 -0.00010408)
(2.85369 0.0112247 -6.1039e-005)
(2.84159 0.0110521 -3.60129e-005)
(2.82971 0.0108929 7.63885e-006)
(2.81813 0.0107398 3.13832e-005)
(2.80678 0.0105836 7.29785e-005)
(2.79574 0.0104196 9.57446e-005)
(2.78492 0.0102362 0.000138226)
(2.77441 0.0100266 0.000160755)
(2.7641 0.0097871 0.000201153)
(2.75407 0.00952351 0.000221362)
(2.74424 0.00923982 0.000259885)
(2.73468 0.00894685 0.00027778)
(2.72533 0.00865581 0.000313826)
(2.71627 0.00838017 0.000332049)
(2.70746 0.00811957 0.00036952)
(2.69899 0.00787023 0.000386116)
(2.69079 0.00762213 0.000416009)
(2.68295 0.00736768 0.000420872)
(2.6754 0.00709236 0.000435602)
(2.66821 0.00678828 0.000422109)
(2.66129 0.00644617 0.000422598)
(2.65479 0.00607678 0.000378115)
(2.64842 0.00568259 0.000406486)
(2.64266 0.0052524 0.000252745)
(2.63657 0.00479635 0.000555969)
(2.63078 0.00434462 -8.03448e-005)
(2.62727 0.00403008 -0.000810015)
(2.62163 0.00308992 0.000648669)
(9.61532 -0.0230977 0.149684)
(8.93536 -0.0408528 0.302675)
(8.20897 -0.0469028 0.340706)
(7.41348 -0.0434529 0.320684)
(6.64858 -0.0365244 0.274577)
(5.97165 -0.0302957 0.218092)
(5.39938 -0.0260877 0.159468)
(4.93668 -0.0245584 0.105495)
(4.5791 -0.0264367 0.0608166)
(4.31244 -0.0317038 0.0269065)
(4.11819 -0.0395113 0.00297762)
(3.9788 -0.0488921 -0.0126428)
(3.8795 -0.0589231 -0.021745)
(3.8088 -0.0687821 -0.0260566)
(3.75793 -0.0777596 -0.0270491)
(3.72038 -0.0853404 -0.0258982)
(3.69136 -0.0911978 -0.0235143)
(3.6674 -0.0952176 -0.0205083)
(3.64605 -0.0974298 -0.0173471)
(3.6256 -0.0979514 -0.0142608)
(3.60497 -0.0969637 -0.0114616)
(3.58345 -0.0946974 -0.00897432)
(3.56074 -0.0913974 -0.00687745)
(3.53664 -0.0873148 -0.0051005)
(3.51126 -0.0826675 -0.00366651)
(3.48465 -0.0776529 -0.00248205)
(3.45706 -0.0724251 -0.00155441)
(3.42864 -0.0671248 -0.000796821)
(3.39966 -0.0618504 -0.000215395)
(3.37029 -0.0566908 0.000259558)
(3.34076 -0.0516974 0.000623161)
(3.31121 -0.0469239 0.000928483)
(3.2818 -0.0423885 0.00116957)
(3.25264 -0.0381128 0.00138032)
(3.22388 -0.0340951 0.00155429)
(3.19558 -0.0303471 0.00171313)
(3.16783 -0.0268559 0.00185127)
(3.1407 -0.0236219 0.00197982)
(3.11426 -0.0206286 0.00209817)
(3.08854 -0.0178782 0.00221071)
(3.06354 -0.0153514 0.00231614)
(3.0393 -0.013044 0.00241192)
(3.01583 -0.0109371 0.00250271)
(2.99317 -0.00902885 0.00258263)
(2.97129 -0.00730565 0.00265724)
(2.95022 -0.00576424 0.0027189)
(2.92989 -0.00438752 0.00277944)
(2.91031 -0.00316927 0.00282831)
(2.89143 -0.0020938 0.00287763)
(2.87324 -0.00115288 0.00291224)
(2.85569 -0.000329054 0.00294778)
(2.83878 0.000388534 0.00296977)
(2.82246 0.00101532 0.00299552)
(2.80676 0.00155813 0.00300599)
(2.7916 0.00202167 0.00302028)
(2.77701 0.00240415 0.00301726)
(2.76291 0.00270755 0.00301965)
(2.74933 0.00293446 0.00300455)
(2.73615 0.00308896 0.00299678)
(2.72343 0.00317849 0.00297086)
(2.71106 0.0032149 0.00295491)
(2.69909 0.00321403 0.00292346)
(2.68744 0.00318444 0.00290579)
(2.67616 0.00313583 0.00287241)
(2.66517 0.00307313 0.00285387)
(2.65452 0.00300565 0.00281846)
(2.64414 0.00293195 0.00279774)
(2.63408 0.00285803 0.0027583)
(2.62425 0.00278454 0.00273482)
(2.61473 0.00272174 0.00269367)
(2.60542 0.00266552 0.00267049)
(2.59638 0.00262137 0.00262913)
(2.58753 0.00258461 0.00260618)
(2.57894 0.0025618 0.00256445)
(2.57051 0.00254127 0.00254064)
(2.56233 0.0025242 0.00249676)
(2.55431 0.00249937 0.00247111)
(2.54652 0.00247038 0.00242588)
(2.53889 0.0024216 0.0023987)
(2.53149 0.00235547 0.00235087)
(2.52423 0.00226372 0.00232068)
(2.51718 0.00215914 0.00227008)
(2.51026 0.00203681 0.00223682)
(2.50355 0.0019123 0.0021838)
(2.49698 0.00178599 0.00214964)
(2.49062 0.0016742 0.00209799)
(2.48444 0.0015662 0.00206493)
(2.4785 0.00146606 0.00201262)
(2.47276 0.00135804 0.00197563)
(2.46728 0.00124463 0.00191553)
(2.462 0.00110524 0.00186592)
(2.457 0.000942343 0.00178998)
(2.4522 0.000741441 0.00172776)
(2.44773 0.000518826 0.0016172)
(2.44333 0.000254235 0.00158239)
(2.43954 -7.76723e-006 0.00133541)
(2.43533 -0.000305484 0.00158942)
(2.43156 -0.000576146 0.000786962)
(2.42953 -0.000440385 9.44917e-005)