/*--------------------------------*- C++ -*----------------------------------*\
| =========                 |                                                 |
| \\      /  F ield         | OpenFOAM: The Open Source CFD Toolbox           |
|  \\    /   O peration     | Version:  5.x                                   |
|   \\  /    A nd           | Web:      www.OpenFOAM.org                      |
|    \\/     M anipulation  |                                                 |
\*---------------------------------------------------------------------------*/
/*   Windows 32 and 64 bit porting by blueCAPE: http://www.bluecape.com.pt   *\
|  Based on Windows porting (2.0.x v4) by Symscape: http://www.symscape.com   |
\*---------------------------------------------------------------------------*/
FoamFile
{
    version     2.0;
    format      ascii;
    class       volScalarField;
    location    "40";
    object      p;
}
// * * * * * * * * * * * * * * * * * * * * * * * * * * * * * * * * * * * * * //

dimensions      [0 2 -2 0 0 0 0];

internalField   nonuniform List<scalar> 
10000
(
72.6253
64.8754
59.7859
57.2983
55.238
53.1901
51.4109
49.9484
48.7018
47.5987
46.6149
45.7383
44.9524
44.2382
43.5778
42.9555
42.3586
41.7771
41.2041
40.6346
40.0655
39.4949
38.9222
38.347
37.7696
37.1904
36.61
36.0289
35.4478
34.8672
34.2875
33.7093
33.1328
32.5584
31.9862
31.4165
30.8495
30.2852
29.7237
29.1652
28.6095
28.0569
27.5072
26.9605
26.4169
25.8762
25.3384
24.8037
24.2718
23.7429
23.2168
22.6935
22.1731
21.6554
21.1404
20.6281
20.1185
19.6115
19.107
18.6051
18.1057
17.6087
17.1142
16.622
16.1322
15.6447
15.1595
14.6765
14.1957
13.717
13.2405
12.7661
12.2938
11.8235
11.3552
10.8888
10.4244
9.96192
9.5013
9.04253
8.58559
8.13043
7.67703
7.22537
6.77541
6.32714
5.88052
5.43553
4.99214
4.55034
4.11009
3.67137
3.23417
2.79844
2.3642
1.93136
1.50013
1.06986
0.64218
0.212505
69.4445
63.5219
59.2739
57.0703
55.1746
53.2071
51.4409
49.9663
48.7059
47.5935
46.6055
45.7287
44.9446
44.2325
43.5736
42.9524
42.3561
41.7751
41.2024
40.633
40.064
39.4936
38.9209
38.3458
37.7685
37.1894
36.6091
36.0281
35.4471
34.8666
34.2871
33.7089
33.1325
32.5582
31.9861
31.4165
30.8495
30.2852
29.7238
29.1652
28.6096
28.057
27.5073
26.9606
26.417
25.8763
25.3385
24.8037
24.2719
23.7429
23.2168
22.6936
22.1731
21.6554
21.1404
20.6281
20.1185
19.6115
19.107
18.6051
18.1057
17.6087
17.1142
16.622
16.1322
15.6447
15.1595
14.6764
14.1956
13.717
13.2405
12.7661
12.2937
11.8234
11.3551
10.8888
10.4244
9.96188
9.50126
9.0425
8.58555
8.13039
7.67699
7.22533
6.77537
6.3271
5.88048
5.43548
4.9921
4.5503
4.11005
3.67133
3.23412
2.7984
2.36416
1.93131
1.50012
1.06978
0.642524
0.212077
67.8697
63.1424
59.2977
57.05
55.1727
53.2688
51.5267
50.0455
48.7745
47.6552
46.663
45.7834
44.9968
44.2815
43.6185
42.9925
42.3913
41.8057
41.2288
40.6556
40.0831
39.5095
38.9341
38.3566
37.7772
37.1963
36.6144
36.0322
35.4501
34.8687
34.2884
33.7097
33.1328
32.5581
31.9857
31.4158
30.8486
30.2842
29.7227
29.164
28.6084
28.0557
27.506
26.9593
26.4157
25.875
25.3373
24.8025
24.2707
23.7418
23.2157
22.6925
22.172
21.6544
21.1394
20.6272
20.1176
19.6106
19.1062
18.6043
18.1049
17.608
17.1134
16.6213
16.1315
15.644
15.1588
14.6758
14.195
13.7164
13.2399
12.7655
12.2932
11.8229
11.3546
10.8883
10.4239
9.96141
9.50081
9.04205
8.58512
8.12997
7.67658
7.22493
6.77498
6.32672
5.8801
5.43512
4.99175
4.54995
4.10971
3.671
3.2338
2.79807
2.36384
1.93098
1.49984
1.06943
0.642819
0.211244
66.8662
62.527
58.9715
56.8219
55.034
53.225
51.5388
50.0803
48.8218
47.7132
46.7294
45.8552
45.0717
44.3573
43.6929
43.0634
42.4579
41.8676
41.2859
40.7081
40.1311
39.5531
38.9735
38.3921
37.8091
37.225
36.6402
36.0553
35.4709
34.8875
34.3054
33.725
33.1467
32.5706
31.9971
31.4262
30.8581
30.2929
29.7306
29.1713
28.6151
28.0619
27.5117
26.9646
26.4205
25.8794
25.3414
24.8063
24.2742
23.745
23.2187
22.6952
22.1746
21.6567
21.1416
20.6292
20.1194
19.6123
19.1077
18.6057
18.1062
17.6092
17.1145
16.6223
16.1324
15.6449
15.1596
14.6765
14.1957
13.717
13.2404
12.766
12.2936
11.8233
11.355
10.8886
10.4242
9.96165
9.50101
9.04223
8.58527
8.1301
7.67669
7.22502
6.77505
6.32677
5.88015
5.43515
4.99176
4.54996
4.1097
3.67098
3.23376
2.79802
2.36376
1.93088
1.49973
1.06929
0.642909
0.210735
66.0707
61.8823
58.5959
56.6261
54.9362
53.1956
51.5539
50.1189
48.8748
47.7785
46.8053
45.9392
45.161
44.4491
43.7844
43.1524
42.5425
41.9469
41.3593
40.7754
40.1925
39.6088
39.0238
38.4373
37.8497
37.2614
36.6729
36.0848
35.4974
34.9114
34.327
33.7446
33.1645
32.5869
32.0119
31.4398
30.8707
30.3045
29.7413
29.1813
28.6243
28.0704
27.5197
26.9721
26.4275
25.886
25.3476
24.8122
24.2798
23.7503
23.2237
22.7
22.1791
21.661
21.1457
20.6331
20.1232
19.6159
19.1111
18.609
18.1093
17.6121
17.1174
16.625
16.135
15.6474
15.162
14.6788
14.1978
13.7191
13.2424
12.7679
12.2954
11.825
11.3566
10.8902
10.4257
9.9631
9.5024
9.04355
8.58653
8.1313
7.67784
7.22612
6.7761
6.32777
5.8811
5.43607
4.99264
4.55079
4.1105
3.67174
3.23448
2.79869
2.36437
1.93143
1.50015
1.06967
0.642846
0.210815
65.461
61.3722
58.2696
56.4418
54.829
53.1407
51.5417
50.138
48.916
47.8371
46.8782
46.0232
45.2528
44.5454
43.882
43.2486
42.6351
42.0344
41.441
40.8511
40.2621
39.6726
39.082
38.4904
37.8981
37.3055
36.7132
36.1216
35.5312
34.9425
34.3557
33.7711
33.1891
32.6098
32.0333
31.4599
30.8894
30.3221
29.7579
29.1969
28.6391
28.0844
27.533
26.9846
26.4395
25.8974
25.3584
24.8225
24.2896
23.7597
23.2327
22.7086
22.1874
21.6689
21.1533
20.6404
20.1302
19.6226
19.1176
18.6152
18.1153
17.618
17.123
16.6304
16.1403
15.6524
15.1668
14.6835
14.2024
13.7235
13.2467
12.7721
12.2995
11.8289
11.3604
10.8939
10.4293
9.96657
9.50577
9.04683
8.58972
8.13441
7.68086
7.22906
6.77897
6.33057
5.88384
5.43874
4.99525
4.55334
4.11299
3.67417
3.23685
2.801
2.3666
1.93359
1.50209
1.07154
0.643858
0.211951
65.0301
61.0011
57.9906
56.247
54.6967
53.058
51.5016
50.1312
48.9334
47.8729
46.9289
46.0859
45.3242
44.6221
43.9608
43.3265
42.71
42.1047
41.5059
40.9102
40.3154
39.7202
39.1242
38.5276
37.9307
37.334
36.738
36.1433
35.5501
34.959
34.3702
33.7839
33.2003
32.6197
32.0421
31.4677
30.8964
30.3283
29.7635
29.202
28.6437
28.0886
27.5368
26.9882
26.4427
25.9004
25.3612
24.8251
24.292
23.7619
23.2348
22.7106
22.1892
21.6707
21.1549
20.6419
20.1316
19.624
19.119
18.6165
18.1165
17.6191
17.1241
16.6315
16.1412
15.6533
15.1677
14.6844
14.2032
13.7243
13.2475
12.7728
12.3001
11.8296
11.361
10.8944
10.4298
9.96711
9.50629
9.04733
8.5902
8.13486
7.6813
7.22948
6.77938
6.33096
5.88422
5.43911
4.99561
4.5537
4.11335
3.67453
3.23721
2.80137
2.36696
1.93393
1.50235
1.07175
0.643669
0.212017
64.774
60.7927
57.8416
56.1599
54.6597
53.0549
51.5232
50.1736
48.9931
47.9465
47.0141
46.1807
45.4266
44.7293
44.0699
43.4347
42.8149
42.2046
41.5996
40.9971
40.3952
39.7931
39.1904
38.5874
37.9846
37.3824
36.7816
36.1824
35.5852
34.9905
34.3985
33.8094
33.2233
32.6404
32.0608
31.4846
30.9117
30.3422
29.7761
29.2133
28.654
28.098
27.5453
26.9959
26.4498
25.9069
25.3671
24.8305
24.2969
23.7664
23.2389
22.7143
22.1927
21.6738
21.1578
20.6446
20.1341
19.6262
19.121
18.6183
18.1182
17.6206
17.1255
16.6328
16.1424
15.6544
15.1687
14.6853
14.2041
13.725
13.2482
12.7734
12.3007
11.8301
11.3615
10.8949
10.4303
9.96751
9.50666
9.04768
8.59052
8.13516
7.68158
7.22975
6.77963
6.33121
5.88446
5.43935
4.99586
4.55395
4.11362
3.67482
3.23753
2.80173
2.36738
1.93442
1.50299
1.07238
0.644795
0.212084
64.7531
60.6164
57.5977
55.9578
54.5194
52.9542
51.4471
50.1194
48.9595
47.9304
47.0118
46.1894
45.4436
44.7523
44.0966
43.4632
42.8434
42.2318
41.6247
41.0195
40.4147
39.8096
39.2042
38.5986
37.9935
37.3893
36.7867
36.1861
35.5877
34.9919
34.399
33.8091
33.2224
32.639
32.0589
31.4822
30.909
30.3392
29.7728
29.2098
28.6502
28.094
27.5412
26.9916
26.4453
25.9023
25.3624
24.8257
24.292
23.7614
23.2338
22.7092
22.1875
21.6686
21.1526
20.6393
20.1287
19.6208
19.1156
18.6129
18.1128
17.6152
17.1201
16.6274
16.137
15.6491
15.1634
14.6799
14.1988
13.7198
13.2429
12.7682
12.2956
11.825
11.3564
10.8898
10.4252
9.96252
9.50172
9.04278
8.58567
8.13037
7.67684
7.22506
6.775
6.32664
5.87995
5.43491
4.99149
4.54967
4.10942
3.67072
3.23356
2.79791
2.36377
1.93102
1.50008
1.06967
0.643915
0.21051
65.9202
61.3448
58.0032
56.2231
54.7174
53.1025
51.5592
50.2128
49.0499
48.0277
47.1201
46.3083
45.5702
44.8828
44.2271
43.5904
42.9648
42.3455
41.7293
41.1145
40.5
39.8856
39.2712
38.6573
38.0445
37.4335
36.8248
36.2187
35.6156
35.0156
34.419
33.8259
33.2363
32.6504
32.0682
31.4897
30.9148
30.3436
29.7761
29.2121
28.6517
28.0948
27.5414
26.9913
26.4446
25.9013
25.3611
24.8241
24.2903
23.7596
23.2319
22.7072
22.1854
21.6665
21.1505
20.6372
20.1266
19.6188
19.1136
18.611
18.1109
17.6134
17.1183
16.6256
16.1354
15.6474
15.1618
14.6785
14.1974
13.7184
13.2417
12.767
12.2944
11.8239
11.3554
10.8889
10.4244
9.96173
9.50099
9.04211
8.58506
8.12981
7.67634
7.22461
6.77461
6.3263
5.87967
5.43468
4.99132
4.54956
4.10939
3.67078
3.23372
2.79819
2.3642
1.93164
1.50083
1.0707
0.644046
0.211856
69.4445
63.5219
59.2739
57.0703
55.1747
53.2072
51.4409
49.9663
48.7059
47.5935
46.6055
45.7287
44.9446
44.2325
43.5736
42.9524
42.3561
41.7751
41.2024
40.633
40.064
39.4936
38.9209
38.3458
37.7685
37.1894
36.6091
36.0281
35.4471
34.8666
34.2871
33.7089
33.1325
32.5582
31.9861
31.4165
30.8495
30.2852
29.7238
29.1652
28.6096
28.057
27.5073
26.9606
26.417
25.8763
25.3385
24.8037
24.2719
23.7429
23.2168
22.6936
22.1731
21.6554
21.1404
20.6281
20.1185
19.6115
19.107
18.6051
18.1057
17.6087
17.1142
16.622
16.1322
15.6447
15.1595
14.6764
14.1956
13.717
13.2405
12.7661
12.2937
11.8234
11.3551
10.8888
10.4244
9.96188
9.50126
9.0425
8.58555
8.13039
7.67699
7.22533
6.77537
6.3271
5.88048
5.43548
4.9921
4.55029
4.11005
3.67133
3.23412
2.7984
2.36416
1.93131
1.50012
1.06978
0.642524
0.212077
66.1502
62.0904
58.7897
56.8977
55.165
53.2792
51.5233
50.0329
48.7588
47.6383
46.6447
45.7635
44.9758
44.2603
43.5978
42.9726
42.3725
41.7881
41.2125
40.6408
40.07
39.4982
38.9245
38.3487
37.771
37.1916
36.6112
36.0302
35.4492
34.8687
34.2892
33.7112
33.1348
32.5605
31.9884
31.4188
30.8518
30.2875
29.726
29.1674
28.6118
28.059
27.5093
26.9626
26.4188
25.8781
25.3403
24.8054
24.2735
23.7445
23.2183
22.695
22.1745
21.6567
21.1417
20.6293
20.1197
19.6126
19.1081
18.6061
18.1067
17.6097
17.1151
16.6229
16.133
15.6455
15.1602
14.6772
14.1964
13.7177
13.2412
12.7667
12.2944
11.824
11.3557
10.8893
10.4249
9.96241
9.50178
9.043
8.58604
8.13086
7.67746
7.22578
6.77581
6.32752
5.88089
5.43589
4.99249
4.55068
4.11042
3.6717
3.23448
2.79874
2.3645
1.93162
1.50049
1.07005
0.643681
0.211208
64.6106
61.7979
58.9331
56.9475
55.1847
53.3587
51.6439
50.1609
48.8828
47.756
46.7544
45.864
45.067
44.3426
43.6713
43.0376
42.4293
41.8373
41.2548
40.677
40.1007
39.5241
38.9462
38.3667
37.7858
37.2037
36.621
36.038
35.4554
34.8735
34.2929
33.7139
33.1369
32.5619
31.9894
31.4194
30.8521
30.2876
29.726
29.1673
28.6115
28.0587
27.5089
26.9622
26.4184
25.8776
25.3398
24.805
24.2731
23.7441
23.2179
22.6946
22.1741
21.6564
21.1414
20.6291
20.1194
19.6124
19.1079
18.6059
18.1065
17.6095
17.1149
16.6228
16.1329
15.6454
15.1601
14.6771
14.1963
13.7176
13.2411
12.7667
12.2943
11.824
11.3557
10.8893
10.4249
9.9624
9.50177
9.04299
8.58603
8.13086
7.67745
7.22578
6.77581
6.32752
5.88089
5.43589
4.9925
4.55069
4.11043
3.6717
3.23449
2.79874
2.36449
1.9316
1.50053
1.07004
0.644898
0.209511
63.6188
61.1715
58.5793
56.6827
55.0158
53.3049
51.6627
50.2083
48.9422
47.8248
46.8308
45.9453
45.1508
44.4269
43.7543
43.1176
42.5053
41.9085
41.321
40.738
40.1566
39.575
38.9924
38.4084
37.8233
37.2373
36.6511
36.065
35.4796
34.8953
34.3125
33.7316
33.1529
32.5765
32.0027
31.4316
30.8633
30.2979
29.7355
29.176
28.6196
28.0662
27.5159
26.9686
26.4244
25.8832
25.345
24.8098
24.2775
23.7482
23.2218
22.6983
22.1775
21.6596
21.1444
20.6319
20.122
19.6148
19.1102
18.6081
18.1085
17.6114
17.1167
16.6244
16.1345
15.6469
15.1615
14.6784
14.1975
13.7188
13.2422
12.7677
12.2953
11.8249
11.3565
10.8901
10.4257
9.96312
9.50245
9.04363
8.58664
8.13143
7.678
7.22629
6.7763
6.32799
5.88134
5.43632
4.99291
4.55108
4.1108
3.67206
3.23481
2.79904
2.36475
1.93183
1.50073
1.07023
0.645487
0.208802
62.8217
60.5064
58.1862
56.4853
54.926
53.2878
51.6917
50.2598
49.0061
47.8998
46.9159
46.0374
45.2464
44.5229
43.8483
43.2076
42.59
41.9872
41.3935
40.8044
40.217
39.6298
39.0418
38.4528
37.8631
37.2731
36.683
36.0936
35.5052
34.9183
34.3332
33.7502
33.1696
32.5917
32.0165
31.4441
30.8748
30.3084
29.7451
29.185
28.6279
28.0739
27.5231
26.9753
26.4307
25.8891
25.3505
24.815
24.2825
23.7529
23.2263
22.7025
22.1816
21.6634
21.148
20.6354
20.1254
19.6181
19.1133
18.6111
18.1114
17.6142
17.1194
16.627
16.1369
15.6492
15.1638
14.6806
14.1996
13.7208
13.2441
12.7695
12.297
11.8266
11.3581
10.8917
10.4272
9.96455
9.50382
9.04495
8.5879
8.13264
7.67915
7.2274
6.77736
6.32901
5.88232
5.43726
4.99381
4.55195
4.11164
3.67285
3.23556
2.79974
2.36538
1.93239
1.5011
1.07059
0.645035
0.209278
62.2108
59.9857
57.8516
56.3006
54.82
53.2331
51.6808
50.2823
49.0522
47.9641
46.9947
46.1268
45.3423
44.6217
43.947
43.3039
42.6821
42.0741
41.4746
40.8795
40.2864
39.6935
39.1002
38.5064
37.9121
37.3178
36.724
36.1312
35.5397
34.9501
34.3625
33.7774
33.1949
32.6152
32.0384
31.4646
30.894
30.3265
29.7621
29.201
28.643
28.0882
27.5365
26.988
26.4427
25.9005
25.3614
24.8253
24.2923
23.7623
23.2352
22.711
22.1897
21.6713
21.1556
20.6426
20.1323
19.6247
19.1197
18.6173
18.1173
17.6199
17.1249
16.6323
16.1421
15.6542
15.1686
14.6852
14.2041
13.7251
13.2483
12.7736
12.301
11.8305
11.3619
10.8953
10.4307
9.96798
9.50716
9.0482
8.59106
8.13573
7.68216
7.23033
6.78022
6.3318
5.88505
5.43993
4.99642
4.5545
4.11413
3.67529
3.23794
2.80206
2.36761
1.93454
1.50296
1.07242
0.645482
0.211105
61.7799
59.607
57.5607
56.0932
54.6754
53.1409
51.6361
50.2757
49.0722
48.0024
47.0465
46.1888
45.4115
44.6952
44.0219
43.3779
42.7532
42.141
41.5363
40.9357
40.3369
39.7384
39.1398
38.541
37.9422
37.3439
36.7466
36.1507
35.5567
34.9648
34.3754
33.7887
33.2048
32.6239
32.0462
31.4715
30.9001
30.332
29.767
29.2053
28.6469
28.0917
27.5397
26.9909
26.4453
25.9029
25.3635
24.8273
24.2941
23.7639
23.2367
22.7124
22.191
21.6724
21.1567
20.6436
20.1333
19.6256
19.1205
18.618
18.1181
17.6206
17.1255
16.6329
16.1427
15.6547
15.1691
14.6857
14.2045
13.7255
13.2487
12.774
12.3013
11.8307
11.3622
10.8956
10.4309
9.96819
9.50735
9.04837
8.59122
8.13587
7.68229
7.23045
6.78033
6.3319
5.88514
5.44002
4.99651
4.55458
4.11422
3.67538
3.23804
2.80216
2.3677
1.93463
1.50292
1.07237
0.644756
0.211343
61.5252
59.3995
57.4159
56.0132
54.646
53.1455
51.667
50.3292
49.1436
48.0865
47.1398
46.2891
45.5172
44.8042
44.1322
43.4871
42.8593
42.2423
41.6317
41.0243
40.4184
39.8128
39.2073
38.6019
37.997
37.3932
36.7908
36.1905
35.5924
34.997
34.4044
33.8149
33.2285
32.6454
32.0657
31.4892
30.9162
30.3465
29.7803
29.2174
28.6579
28.1017
27.5488
26.9992
26.4529
25.9098
25.3699
24.8331
24.2994
23.7688
23.2412
22.7165
22.1948
21.6759
21.1598
20.6465
20.136
19.6281
19.1228
18.6201
18.12
17.6223
17.1272
16.6344
16.144
15.656
15.1702
14.6868
14.2055
13.7265
13.2496
12.7748
12.3021
11.8314
11.3628
10.8962
10.4315
9.96873
9.50786
9.04885
8.59167
8.1363
7.6827
7.23085
6.78071
6.33228
5.88551
5.44038
4.99687
4.55495
4.1146
3.67578
3.23847
2.80264
2.36825
1.93524
1.50373
1.07316
0.646437
0.210869
61.4996
59.2025
57.1453
55.7907
54.4907
53.0304
51.5772
50.2639
49.1025
48.0658
47.1345
46.295
45.5313
44.8239
44.1553
43.5119
42.8843
42.2663
41.6539
41.0442
40.4358
39.8276
39.2196
38.6118
38.0049
37.3993
36.7954
36.1937
35.5945
34.9981
34.4047
33.8144
33.2274
32.6436
32.0633
31.4864
30.9129
30.3429
29.7763
29.2131
28.6533
28.0968
27.5438
26.994
26.4476
25.9044
25.3643
24.8275
24.2937
23.7631
23.2354
22.7107
22.1889
21.67
21.1539
20.6406
20.13
19.6221
19.1168
18.6141
18.114
17.6164
17.1212
16.6285
16.1381
15.6501
15.1644
14.6809
14.1997
13.7207
13.2439
12.7691
12.2965
11.8259
11.3573
10.8907
10.4261
9.96339
9.50258
9.04362
8.5865
8.13119
7.67765
7.22585
6.77579
6.32741
5.88071
5.43566
4.99223
4.5504
4.11014
3.67143
3.23426
2.79859
2.36444
1.93167
1.5008
1.07042
0.646702
0.207805
62.6847
59.9411
57.5314
56.0266
54.6679
53.1639
51.6743
50.3419
49.1792
48.1521
47.2342
46.4073
45.6524
44.9496
44.2811
43.6343
43.0005
42.3743
41.7524
41.1327
40.5142
39.8964
39.2792
38.663
38.0483
37.4358
36.8258
36.2188
35.6149
35.0143
34.4173
33.8239
33.2341
32.6481
32.0658
31.4871
30.9122
30.341
29.7734
29.2095
28.6491
28.0922
27.5388
26.9888
26.4422
25.8989
25.3588
24.822
24.2882
23.7576
23.23
22.7054
22.1837
21.6649
21.149
20.6358
20.1253
19.6175
19.1124
18.6098
18.1098
17.6124
17.1173
16.6247
16.1345
15.6466
15.1611
14.6777
14.1967
13.7178
13.241
12.7664
12.2939
11.8234
11.3549
10.8885
10.4239
9.96132
9.5006
9.04173
8.5847
8.12947
7.67601
7.2243
6.77432
6.32602
5.8794
5.43443
4.99108
4.54933
4.10917
3.67057
3.23353
2.79801
2.36405
1.93151
1.50084
1.07069
0.645389
0.209801
67.8698
63.1424
59.2976
57.0499
55.1727
53.2689
51.5268
50.0455
48.7745
47.6552
46.663
45.7834
44.9968
44.2815
43.6185
42.9925
42.3913
41.8057
41.2287
40.6556
40.0831
39.5095
38.9341
38.3566
37.7772
37.1963
36.6144
36.0322
35.4501
34.8687
34.2885
33.7097
33.1328
32.5581
31.9857
31.4158
30.8486
30.2842
29.7227
29.164
28.6084
28.0557
27.506
26.9593
26.4157
25.875
25.3373
24.8025
24.2707
23.7418
23.2157
22.6925
22.172
21.6544
21.1394
20.6272
20.1176
19.6106
19.1062
18.6043
18.1049
17.608
17.1134
16.6213
16.1315
15.644
15.1588
14.6758
14.195
13.7164
13.2399
12.7655
12.2932
11.8229
11.3546
10.8883
10.4239
9.96141
9.50081
9.04205
8.58512
8.12997
7.67658
7.22493
6.77498
6.32672
5.8801
5.43512
4.99175
4.54995
4.10971
3.671
3.2338
2.79807
2.36384
1.93098
1.49984
1.06944
0.642818
0.211243
64.6106
61.798
58.9331
56.9473
55.1846
53.3588
51.6441
50.161
48.8828
47.7559
46.7543
45.8639
45.067
44.3426
43.6713
43.0376
42.4293
41.8373
41.2548
40.6769
40.1007
39.524
38.9462
38.3667
37.7858
37.2037
36.621
36.038
35.4554
34.8736
34.293
33.714
33.1369
32.5619
31.9894
31.4194
30.8521
30.2876
29.726
29.1673
28.6115
28.0587
27.5089
26.9622
26.4184
25.8776
25.3398
24.805
24.2731
23.7441
23.2179
22.6946
22.1741
21.6564
21.1414
20.6291
20.1194
19.6124
19.1079
18.6059
18.1065
17.6095
17.1149
16.6228
16.1329
15.6454
15.1601
14.6771
14.1963
13.7176
13.2411
12.7667
12.2943
11.824
11.3557
10.8893
10.4249
9.9624
9.50177
9.04299
8.58603
8.13086
7.67745
7.22578
6.77581
6.32752
5.88089
5.43589
4.9925
4.55069
4.11043
3.6717
3.23449
2.79874
2.36449
1.9316
1.50053
1.07005
0.644898
0.209509
63.0508
61.5
59.1095
57.0208
55.2091
53.453
51.8052
50.3524
49.0853
47.9605
46.9515
46.0453
45.2279
44.4819
43.7897
43.1368
42.5114
41.9046
41.3098
40.7219
40.1376
39.5545
38.9714
38.3878
37.8035
37.2186
36.6336
36.0487
35.4644
34.8812
34.2994
33.7194
33.1415
32.5659
31.9927
31.4223
30.8546
30.2897
29.7278
29.1688
28.6129
28.0599
27.51
26.9631
26.4192
25.8783
25.3405
24.8056
24.2736
23.7445
23.2184
22.695
22.1745
21.6567
21.1417
20.6294
20.1198
19.6127
19.1082
18.6063
18.1068
17.6099
17.1153
16.6231
16.1333
15.6457
15.1605
14.6775
14.1967
13.718
13.2415
12.767
12.2947
11.8243
11.356
10.8897
10.4252
9.96273
9.5021
9.04332
8.58636
8.13118
7.67777
7.22609
6.77612
6.32782
5.88118
5.43618
4.99278
4.55097
4.11071
3.67198
3.23475
2.79898
2.3647
1.93178
1.50078
1.07041
0.647019
0.206217
62.0506
60.8662
58.7569
56.7535
55.0367
53.4109
51.8546
50.4399
49.1858
48.0682
47.0637
46.1583
45.3382
44.5872
43.889
43.2292
42.5967
41.9828
41.3811
40.7869
40.1966
39.6082
39.0203
38.4322
37.8439
37.2553
36.6669
36.079
35.492
34.9063
34.3224
33.7404
33.1607
32.5836
32.0091
31.4374
30.8686
30.3028
29.74
29.1802
28.6235
28.0699
27.5193
26.9719
26.4274
25.886
25.3477
24.8123
24.2799
23.7505
23.2239
22.7002
22.1794
21.6613
21.146
20.6335
20.1236
19.6163
19.1116
18.6095
18.1099
17.6127
17.118
16.6256
16.1357
15.648
15.1627
14.6795
14.1986
13.7198
13.2432
12.7687
12.2963
11.8258
11.3574
10.891
10.4265
9.96398
9.50329
9.04446
8.58745
8.13223
7.67877
7.22705
6.77704
6.3287
5.88203
5.437
4.99358
4.55174
4.11145
3.67268
3.23541
2.79959
2.36524
1.93225
1.50114
1.07085
0.647487
0.205164
61.2451
60.1856
58.3562
56.5611
54.9594
53.4142
51.9117
50.5225
49.2799
48.1715
47.1754
46.2749
45.455
44.7003
43.9955
43.3275
42.6859
42.063
41.4527
40.8505
40.2532
39.6585
39.0652
38.4723
37.8798
37.2876
36.6959
36.1051
35.5155
34.9276
34.3416
33.7579
33.1767
32.5982
32.0225
31.4497
30.88
30.3134
29.7499
29.1896
28.6323
28.0782
27.5272
26.9792
26.4344
25.8927
25.3539
24.8183
24.2856
23.7558
23.229
22.7051
22.184
21.6658
21.1503
20.6375
20.1275
19.62
19.1152
18.6129
18.1132
17.6159
17.121
16.6286
16.1385
15.6507
15.1653
14.682
14.201
13.7222
13.2454
12.7708
12.2983
11.8278
11.3593
10.8928
10.4283
9.96566
9.5049
9.04601
8.58894
8.13366
7.68015
7.22837
6.77831
6.32993
5.88322
5.43814
4.99468
4.55279
4.11246
3.67364
3.23631
2.80042
2.36594
1.93283
1.5013
1.07101
0.645349
0.207025
60.6257
59.652
58.0148
56.379
54.8587
53.3662
51.9122
50.5614
49.345
48.2552
47.2729
46.3809
45.5644
44.8088
44.1
43.4262
42.778
42.1481
41.5309
40.9224
40.3191
39.7191
39.1208
38.5235
37.9268
37.3309
36.7358
36.1419
35.5496
34.9591
34.3709
33.7851
33.202
32.6218
32.0447
31.4706
30.8997
30.3319
29.7674
29.2061
28.6479
28.093
27.5412
26.9925
26.447
25.9046
25.3653
24.8291
24.2958
23.7656
23.2384
22.714
22.1926
21.6739
21.1581
20.645
20.1347
19.627
19.1219
18.6194
18.1194
17.6219
17.1268
16.6342
16.1439
15.656
15.1703
14.6869
14.2058
13.7267
13.2499
12.7751
12.3025
11.8319
11.3633
10.8967
10.432
9.96925
9.5084
9.04941
8.59224
8.13688
7.68328
7.23143
6.78129
6.33284
5.88606
5.44092
4.99739
4.55545
4.11505
3.67617
3.23876
2.80278
2.36817
1.93492
1.50284
1.07251
0.643793
0.210792
60.1882
59.2636
57.715
56.1645
54.7072
53.27
51.8704
50.5654
49.3802
48.3094
47.3384
46.4529
45.6395
44.8842
44.1738
43.4971
42.8449
42.2104
41.5883
40.9745
40.3661
39.7609
39.1577
38.5557
37.9548
37.355
36.7566
36.1597
35.5649
34.9723
34.3823
33.7951
33.2108
32.6296
32.0517
31.4769
30.9054
30.3372
29.7722
29.2105
28.652
28.0967
27.5446
26.9956
26.4499
25.9072
25.3677
24.8312
24.2978
23.7674
23.24
22.7155
22.194
21.6752
21.1593
20.6462
20.1357
19.6279
19.1228
18.6202
18.1202
17.6226
17.1275
16.6348
16.1445
15.6565
15.1708
14.6874
14.2062
13.7271
13.2503
12.7755
12.3028
11.8321
11.3635
10.8969
10.4322
9.96943
9.50856
9.04954
8.59236
8.13697
7.68336
7.23149
6.78134
6.33288
5.88609
5.44095
4.99741
4.55546
4.11506
3.67617
3.23876
2.80278
2.36814
1.93485
1.50252
1.07221
0.641982
0.211957
59.9284
59.0498
57.5669
56.0842
54.6789
53.2783
51.9101
50.6332
49.4691
48.4107
47.4458
46.5629
45.7501
44.9941
44.282
43.6024
42.9465
42.3073
41.6798
41.0599
40.445
39.8331
39.2233
38.6148
38.0078
37.4024
36.7988
36.1974
35.5985
35.0024
34.4093
33.8194
33.2328
32.6495
32.0697
31.4933
30.9203
30.3507
29.7845
29.2217
28.6622
28.106
27.553
27.0034
26.4569
25.9137
25.3736
24.8367
24.3029
23.7721
23.2443
22.7195
22.1976
21.6786
21.1624
20.6491
20.1384
19.6304
19.1251
18.6223
18.1221
17.6244
17.1292
16.6363
16.1459
15.6578
15.172
14.6885
14.2072
13.7281
13.2511
12.7763
12.3036
11.8329
11.3642
10.8975
10.4328
9.97
9.50909
9.05005
8.59284
8.13743
7.6838
7.23191
6.78174
6.33327
5.88648
5.44132
4.99779
4.55584
4.11545
3.67658
3.23921
2.80328
2.36872
1.93553
1.50349
1.07329
0.64458
0.210214
59.9007
58.8462
57.2881
55.8577
54.52
53.1554
51.8099
50.56
49.4255
48.3924
47.4456
46.5746
45.7692
45.0178
44.3079
43.6289
42.9724
42.3318
41.7023
41.0801
40.4628
39.8484
39.2362
38.6256
38.0166
37.4094
36.8044
36.2018
35.6019
35.0049
34.4111
33.8205
33.2333
32.6494
32.069
31.4921
30.9186
30.3485
29.7818
29.2184
28.6585
28.1019
27.5486
26.9986
26.4519
25.9085
25.3682
24.8311
24.2971
23.7662
23.2383
22.7134
22.1915
21.6724
21.1561
20.6427
20.1319
19.6239
19.1185
18.6157
18.1155
17.6178
17.1225
16.6297
16.1392
15.6511
15.1654
14.6819
14.2006
13.7215
13.2446
12.7698
12.2971
11.8265
11.3579
10.8912
10.4266
9.96384
9.503
9.04402
8.58688
8.13154
7.67798
7.22617
6.77608
6.32769
5.88098
5.43591
4.99247
4.55063
4.11035
3.67163
3.23443
2.79873
2.36452
1.93171
1.50077
1.07094
0.648321
0.203395
61.0782
59.5681
57.6375
56.0595
54.6788
53.2784
51.8945
50.6208
49.4816
48.4559
47.5208
46.6611
45.8643
45.1176
44.4091
43.7284
43.0677
42.421
41.7842
41.154
40.5283
39.9058
39.2857
38.6677
38.052
37.4389
36.8285
36.2212
35.6172
35.0166
34.4196
33.8263
33.2366
32.6506
32.0684
31.4898
30.9149
30.3435
29.7758
29.2117
28.651
28.0939
27.5402
26.99
26.4431
25.8995
25.3592
24.8221
24.2882
23.7574
23.2297
22.705
22.1832
21.6643
21.1483
20.635
20.1245
19.6166
19.1114
18.6089
18.1088
17.6113
17.1162
16.6236
16.1334
15.6455
15.1599
14.6766
14.1955
13.7166
13.2399
12.7653
12.2927
11.8223
11.3538
10.8873
10.4228
9.96024
9.49954
9.04069
8.58368
8.12847
7.67504
7.22334
6.77338
6.3251
5.8785
5.43355
4.99022
4.5485
4.10836
3.66978
3.23276
2.79727
2.36336
1.93089
1.50048
1.07055
0.64713
0.206034
66.8663
62.5271
58.9713
56.8217
55.034
53.2253
51.5391
50.0804
48.8217
47.7131
46.7293
45.8552
45.0717
44.3573
43.6929
43.0635
42.4579
41.8676
41.2859
40.7081
40.131
39.5531
38.9735
38.3921
37.8091
37.225
36.6402
36.0554
35.471
34.8875
34.3054
33.725
33.1467
32.5706
31.9971
31.4262
30.8581
30.2929
29.7306
29.1713
28.6151
28.0618
27.5117
26.9646
26.4205
25.8794
25.3414
24.8063
24.2742
23.745
23.2187
22.6952
22.1746
21.6567
21.1416
20.6292
20.1194
19.6123
19.1077
18.6057
18.1062
17.6092
17.1145
16.6223
16.1324
15.6449
15.1596
14.6765
14.1957
13.717
13.2404
12.766
12.2936
11.8233
11.3549
10.8886
10.4242
9.96165
9.50101
9.04223
8.58527
8.1301
7.67669
7.22502
6.77505
6.32677
5.88014
5.43515
4.99176
4.54996
4.1097
3.67098
3.23377
2.79802
2.36376
1.93088
1.49973
1.06929
0.642908
0.210733
63.6189
61.1716
58.5791
56.6823
55.0157
53.3052
51.6631
50.2085
48.9421
47.8246
46.8307
45.9452
45.1508
44.4269
43.7543
43.1177
42.5053
41.9085
41.3209
40.738
40.1566
39.575
38.9923
38.4083
37.8232
37.2373
36.6511
36.065
35.4796
34.8953
34.3126
33.7317
33.1529
32.5765
32.0027
31.4316
30.8633
30.2979
29.7354
29.176
28.6196
28.0662
27.5159
26.9686
26.4244
25.8832
25.345
24.8098
24.2776
23.7482
23.2218
22.6983
22.1775
21.6596
21.1444
20.6319
20.122
19.6148
19.1102
18.6081
18.1085
17.6114
17.1167
16.6244
16.1345
15.6469
15.1615
14.6784
14.1975
13.7188
13.2422
12.7677
12.2953
11.8249
11.3565
10.8901
10.4257
9.96312
9.50245
9.04363
8.58664
8.13144
7.678
7.22629
6.7763
6.32799
5.88134
5.43632
4.99291
4.55108
4.11081
3.67206
3.23482
2.79904
2.36476
1.93183
1.50073
1.07023
0.645486
0.208799
62.0507
60.8663
58.7568
56.7532
55.0366
53.4112
51.855
50.4401
49.1858
48.068
47.0635
46.1581
45.3381
44.5873
43.8891
43.2293
42.5967
41.9828
41.3811
40.7868
40.1966
39.6081
39.0202
38.4322
37.8438
37.2553
36.6669
36.079
35.492
34.9064
34.3224
33.7404
33.1607
32.5836
32.0091
31.4374
30.8686
30.3027
29.7399
29.1802
28.6235
28.0699
27.5193
26.9719
26.4274
25.886
25.3477
24.8123
24.2799
23.7505
23.2239
22.7002
22.1794
21.6613
21.146
20.6335
20.1236
19.6163
19.1116
18.6095
18.1099
17.6127
17.118
16.6256
16.1357
15.648
15.1627
14.6795
14.1986
13.7198
13.2432
12.7687
12.2963
11.8258
11.3574
10.891
10.4265
9.96398
9.50329
9.04446
8.58745
8.13223
7.67877
7.22705
6.77704
6.3287
5.88203
5.437
4.99358
4.55174
4.11145
3.67268
3.23541
2.79959
2.36524
1.93225
1.50114
1.07085
0.647484
0.205162
61.0488
60.2415
58.4194
56.4937
54.8657
53.3779
51.9253
50.554
49.3116
48.198
47.1953
46.2877
45.4615
44.7018
43.9939
43.3244
42.6826
42.0601
41.4508
40.85
40.2542
39.661
39.0691
38.4776
37.8861
37.2947
36.7036
36.113
35.5235
34.9355
34.3492
33.7651
33.1835
32.6046
32.0285
31.4554
30.8853
30.3184
29.7546
29.194
28.6366
28.0823
27.5311
26.983
26.438
25.8961
25.3572
24.8213
24.2884
23.7585
23.2315
22.7074
22.1862
21.6678
21.1522
20.6393
20.1291
19.6215
19.1166
18.6142
18.1144
17.617
17.1221
16.6295
16.1394
15.6516
15.1661
14.6828
14.2018
13.7229
13.2462
12.7715
12.299
11.8284
11.3599
10.8934
10.4289
9.9662
9.50544
9.04654
8.58945
8.13417
7.68064
7.22886
6.77879
6.3304
5.88367
5.43859
4.99512
4.55324
4.1129
3.67408
3.23673
2.8008
2.36629
1.93315
1.50165
1.0714
0.646303
0.205615
60.2415
59.5619
58.0216
56.3047
54.7925
53.3909
51.9994
50.6572
49.4255
48.3197
47.3249
46.4219
45.5946
44.8287
44.1108
43.4293
42.7749
42.1402
41.5197
40.9091
40.3051
39.7054
39.1081
38.5123
37.9172
37.3229
36.7291
36.1363
35.5448
34.9548
34.3668
33.7812
33.1982
32.618
32.0409
31.4668
30.896
30.3284
29.7641
29.2031
28.6452
28.0906
27.5391
26.9907
26.4454
25.9032
25.364
24.8279
24.2948
23.7646
23.2374
22.713
22.1916
21.673
21.1571
20.6441
20.1337
19.626
19.1209
18.6184
18.1184
17.6209
17.1258
16.6332
16.143
15.6551
15.1694
14.6861
14.2049
13.726
13.2491
12.7744
12.3017
11.8311
11.3625
10.8959
10.4313
9.96855
9.50771
9.04874
8.59158
8.13623
7.68264
7.23079
6.78066
6.33222
5.88544
5.44031
4.99678
4.55484
4.11444
3.67555
3.2381
2.80205
2.36731
1.9339
1.50152
1.07113
0.640758
0.210762
59.6185
59.0267
57.6829
56.129
54.699
53.3518
52.0127
50.7121
49.5076
48.42
47.4381
46.5427
45.7169
44.9472
44.222
43.5312
42.867
42.2229
41.5939
40.9759
40.3657
39.7606
39.1589
38.5593
37.9609
37.3635
36.767
36.1716
35.5776
34.9853
34.3953
33.8076
33.2228
32.641
32.0624
31.487
30.915
30.3464
29.7812
29.2192
28.6606
28.1051
27.5529
27.0039
26.458
25.9151
25.3754
24.8387
24.3051
23.7744
23.2467
22.722
22.2001
21.6811
21.165
20.6516
20.1409
19.633
19.1276
18.6249
18.1247
17.627
17.1317
16.6389
16.1485
15.6605
15.1747
14.6912
14.2099
13.7308
13.2538
12.779
12.3062
11.8355
11.3668
10.9001
10.4353
9.97247
9.51154
9.05247
8.59523
8.13979
7.68612
7.23419
6.78399
6.33547
5.88863
5.44342
4.99984
4.55782
4.11735
3.67837
3.24082
2.80464
2.36967
1.93598
1.50263
1.07204
0.636094
0.217664
59.1773
58.6369
57.3841
55.9161
54.5484
53.2577
51.9777
50.7279
49.5573
48.4886
47.5162
46.6245
45.7986
45.0261
44.2964
43.6005
42.9309
42.2815
41.6473
41.0242
40.4091
39.7992
39.193
38.5889
37.9865
37.3853
36.7855
36.1871
35.5906
34.9962
34.4044
33.8154
33.2295
32.6469
32.0676
31.4917
30.9194
30.3504
29.7849
29.2227
28.6638
28.1082
27.5557
27.0065
26.4603
25.9173
25.3774
24.8405
24.3067
23.7759
23.2481
22.7232
22.2013
21.6822
21.1659
20.6525
20.1418