/*--------------------------------*- C++ -*----------------------------------*\
| =========                 |                                                 |
| \\      /  F ield         | OpenFOAM: The Open Source CFD Toolbox           |
|  \\    /   O peration     | Version:  5.x                                   |
|   \\  /    A nd           | Web:      www.OpenFOAM.org                      |
|    \\/     M anipulation  |                                                 |
\*---------------------------------------------------------------------------*/
/*   Windows 32 and 64 bit porting by blueCAPE: http://www.bluecape.com.pt   *\
|  Based on Windows porting (2.0.x v4) by Symscape: http://www.symscape.com   |
\*---------------------------------------------------------------------------*/
FoamFile
{
    version     2.0;
    format      ascii;
    class       volVectorField;
    location    "40";
    object      U;
}
// * * * * * * * * * * * * * * * * * * * * * * * * * * * * * * * * * * * * * //

dimensions      [0 1 -1 0 0 0 0];

internalField   nonuniform List<vector> 
10000
(
(9.21826 0.142615 0.142614)
(7.91793 0.263404 0.263402)
(6.54733 0.261136 0.261136)
(5.18106 0.20706 0.207064)
(4.06822 0.139834 0.139838)
(3.28114 0.0811021 0.0810993)
(2.73925 0.0418704 0.0418621)
(2.3519 0.0215791 0.0215725)
(2.06415 0.0134731 0.0134716)
(1.84191 0.0109399 0.0109412)
(1.6629 0.00992945 0.0099305)
(1.51564 0.00873095 0.00873101)
(1.39545 0.00709131 0.00709112)
(1.29949 0.00535214 0.00535223)
(1.22454 0.00384994 0.00385027)
(1.16699 0.00270935 0.00270978)
(1.12332 0.00190383 0.00190448)
(1.09038 0.00135655 0.00135783)
(1.06554 0.000996269 0.000998596)
(1.04669 0.00076828 0.000771823)
(1.03216 0.000632216 0.000636736)
(1.0207 0.000557529 0.00056244)
(1.01135 0.000519882 0.000524461)
(1.00343 0.000501837 0.000505448)
(0.996432 0.000492007 0.00049425)
(0.990023 0.000484211 0.000484961)
(0.983966 0.000475525 0.000474905)
(0.978108 0.000464925 0.000463219)
(0.972353 0.000452299 0.000449898)
(0.966644 0.000437941 0.000435268)
(0.960955 0.000422273 0.00041973)
(0.955275 0.000405895 0.000403806)
(0.949604 0.000389231 0.000387803)
(0.943948 0.000372908 0.00037222)
(0.938318 0.000357173 0.000357219)
(0.932724 0.000342447 0.000343143)
(0.927177 0.000328854 0.00033006)
(0.921688 0.000316723 0.000318239)
(0.916263 0.000305891 0.000307512)
(0.910911 0.000296423 0.000297961)
(0.905634 0.000288087 0.000289399)
(0.900437 0.000280878 0.000281855)
(0.895322 0.000274507 0.000275096)
(0.890291 0.000268883 0.000269073)
(0.885346 0.000263776 0.0002636)
(0.880486 0.000259171 0.000258684)
(0.875713 0.000254862 0.000254145)
(0.871027 0.000250839 0.000249974)
(0.866427 0.000246968 0.000246036)
(0.861914 0.000243332 0.000242388)
(0.857485 0.000239773 0.000238869)
(0.85314 0.000236357 0.000235525)
(0.848878 0.000232974 0.000232234)
(0.844697 0.000229754 0.000229097)
(0.840595 0.00022652 0.000225941)
(0.836571 0.000223343 0.000222835)
(0.832625 0.00022011 0.000219669)
(0.828753 0.000216995 0.000216603)
(0.824955 0.000213848 0.000213505)
(0.82123 0.000210786 0.000210488)
(0.817575 0.000207712 0.000207465)
(0.813989 0.000204806 0.000204597)
(0.810469 0.000201882 0.000201715)
(0.807014 0.00019902 0.000198894)
(0.803623 0.000196089 0.000196011)
(0.800294 0.000193279 0.000193235)
(0.797025 0.000190438 0.00019043)
(0.793815 0.000187689 0.000187715)
(0.790662 0.000184911 0.000184982)
(0.787566 0.000182285 0.000182394)
(0.784525 0.000179624 0.000179785)
(0.781536 0.000177033 0.000177252)
(0.7786 0.000174381 0.000174664)
(0.775714 0.000171861 0.000172184)
(0.772878 0.000169299 0.000169642)
(0.77009 0.00016682 0.000167154)
(0.76735 0.000164291 0.000164598)
(0.764656 0.000161908 0.000162156)
(0.762007 0.000159481 0.000159666)
(0.759402 0.000157119 0.00015725)
(0.756841 0.000154681 0.000154786)
(0.754323 0.000152379 0.000152469)
(0.751847 0.000150051 0.000150147)
(0.749411 0.000147839 0.000147954)
(0.747016 0.000145605 0.000145746)
(0.744658 0.000143528 0.000143672)
(0.742338 0.000141393 0.000141529)
(0.740055 0.000139299 0.000139414)
(0.737807 0.000137099 0.000137193)
(0.735596 0.000135028 0.000135085)
(0.733419 0.000132909 0.000132929)
(0.731275 0.00013109 0.000131074)
(0.729167 0.000129015 0.00012898)
(0.727082 0.00012858 0.000128523)
(0.725043 0.000124697 0.000124627)
(0.722973 0.00013219 0.000132093)
(0.721076 0.000104608 0.000104464)
(0.718824 0.000163358 0.000163253)
(0.71772 -5.05981e-005 -5.07077e-005)
(0.71517 0.00026564 0.000265701)
(9.75171 0.213957 0.152356)
(9.37557 0.410491 0.30889)
(8.77829 0.446097 0.344091)
(7.95953 0.420661 0.319178)
(7.0925 0.366078 0.266248)
(6.28633 0.295762 0.204204)
(5.5702 0.226019 0.147121)
(4.94997 0.168246 0.102033)
(4.42811 0.12522 0.0695468)
(3.99911 0.0946694 0.047259)
(3.64993 0.072988 0.0323066)
(3.36608 0.0569436 0.0223183)
(3.13538 0.0443193 0.0155952)
(2.94825 0.033974 0.0110461)
(2.79679 0.0254699 0.00801337)
(2.67434 0.018628 0.00607837)
(2.57526 0.0132925 0.00492998)
(2.49485 0.00926901 0.00431251)
(2.4292 0.00632986 0.00401528)
(2.37519 0.00425659 0.00388594)
(2.3303 0.00285936 0.00382206)
(2.29251 0.00198106 0.00376257)
(2.26021 0.00149013 0.0036752)
(2.23215 0.00127793 0.00354784)
(2.20735 0.00125683 0.00338012)
(2.18506 0.00135866 0.00317898)
(2.16472 0.00153271 0.00295415)
(2.14589 0.00174196 0.00271607)
(2.12825 0.00196083 0.00247426)
(2.11155 0.00217195 0.0022368)
(2.09563 0.00236446 0.00200978)
(2.08033 0.00253239 0.00179759)
(2.06558 0.0026734 0.00160299)
(2.0513 0.00278719 0.00142762)
(2.03744 0.00287394 0.00127142)
(2.02397 0.00293566 0.00113401)
(2.01086 0.00297508 0.00101429)
(1.9981 0.00299566 0.000911329)
(1.98565 0.00300031 0.000823378)
(1.97352 0.00299194 0.000749054)
(1.96169 0.0029729 0.00068662)
(1.95014 0.00294534 0.000634871)
(1.93887 0.00291095 0.000592146)
(1.92787 0.00287112 0.000557125)
(1.91713 0.00282701 0.000528297)
(1.90663 0.00277966 0.000504741)
(1.89638 0.00272989 0.000485301)
(1.88637 0.00267841 0.000469228)
(1.87658 0.00262581 0.000455673)
(1.86702 0.00257267 0.000444339)
(1.85767 0.00251936 0.000434657)
(1.84853 0.00246621 0.000426399)
(1.83959 0.00241346 0.000419109)
(1.83085 0.00236144 0.000412791)
(1.8223 0.0023102 0.000407038)
(1.81393 0.00225985 0.000401772)
(1.80575 0.0022104 0.000396665)
(1.79773 0.00216209 0.00039193)
(1.78988 0.00211492 0.000387378)
(1.7822 0.00206897 0.000383147)
(1.77468 0.00202425 0.000379005)
(1.76731 0.00198095 0.000375159)
(1.76008 0.00193894 0.000371307)
(1.753 0.00189819 0.000367473)
(1.74606 0.00185856 0.000363385)
(1.73926 0.00182016 0.000359343)
(1.73259 0.00178288 0.000355266)
(1.72605 0.00174674 0.000351404)
(1.71963 0.00171164 0.000347583)
(1.71333 0.00167769 0.000344026)
(1.70714 0.00164473 0.00034045)
(1.70108 0.00161275 0.000336904)
(1.69512 0.00158161 0.000333117)
(1.68927 0.00155144 0.000329334)
(1.68352 0.0015221 0.00032539)
(1.67788 0.00149362 0.000321459)
(1.67234 0.00146586 0.000317352)
(1.66689 0.00143898 0.000313326)
(1.66154 0.00141282 0.000309212)
(1.65628 0.00138738 0.000305156)
(1.65111 0.0013625 0.000300959)
(1.64603 0.00133837 0.000296866)
(1.64103 0.00131486 0.000292753)
(1.63612 0.00129204 0.00028883)
(1.63129 0.00126976 0.000284944)
(1.62654 0.00124817 0.000281285)
(1.62187 0.00122703 0.000277609)
(1.61727 0.00120633 0.00027395)
(1.61274 0.00118591 0.000270051)
(1.60829 0.00116603 0.000266149)
(1.60391 0.00114666 0.000262118)
(1.5996 0.00112828 0.00025845)
(1.59536 0.00111074 0.000254419)
(1.59117 0.00109614 0.000252653)
(1.58707 0.00108015 0.000246138)
(1.58294 0.00107782 0.000256455)
(1.57908 0.00103378 0.000215036)
(1.57465 0.00109139 0.000309391)
(1.57203 0.00072899 -8.82897e-005)
(1.56637 0.00111606 0.000500392)
(9.61217 0.105463 0.149845)
(9.02221 0.214547 0.29549)
(8.42076 0.249298 0.320396)
(7.76663 0.262583 0.295456)
(7.13232 0.261386 0.252483)
(6.55212 0.241227 0.202655)
(6.01992 0.208582 0.153709)
(5.53269 0.17301 0.110861)
(5.09788 0.139662 0.0759726)
(4.72138 0.109973 0.0489245)
(4.40227 0.0841001 0.0289231)
(4.13539 0.0619119 0.0149124)
(3.91437 0.0431783 0.00567806)
(3.73274 0.0276643 1.89228e-005)
(3.58416 0.0151682 -0.0030857)
(3.46249 0.00545615 -0.00442167)
(3.36228 -0.00180447 -0.00457904)
(3.27917 -0.0070148 -0.00400057)
(3.20959 -0.0105675 -0.003015)
(3.15066 -0.0128129 -0.00186003)
(3.10004 -0.0140435 -0.000698615)
(3.05593 -0.0144964 0.000368387)
(3.01689 -0.0143674 0.00128665)
(2.98184 -0.013818 0.00203623)
(2.94995 -0.0129806 0.00261832)
(2.92062 -0.0119618 0.00304731)
(2.89337 -0.0108443 0.0033427)
(2.86785 -0.00969146 0.00352601)
(2.8438 -0.00854886 0.00361776)
(2.82102 -0.00744855 0.00363714)
(2.79934 -0.0064113 0.00360066)
(2.77864 -0.00544934 0.00352262)
(2.75883 -0.00456831 0.00341473)
(2.73983 -0.00376951 0.00328696)
(2.72157 -0.003052 0.00314723)
(2.70399 -0.00241199 0.00300201)
(2.68704 -0.00184396 0.0028558)
(2.67068 -0.00134143 0.00271235)
(2.65487 -0.000898105 0.00257387)
(2.63958 -0.000507555 0.00244229)
(2.62476 -0.000163806 0.00231848)
(2.6104 0.000138713 0.00220343)
(2.59646 0.000404934 0.00209704)
(2.58292 0.000639165 0.00199918)
(2.56975 0.000845199 0.00190901)
(2.55695 0.00102639 0.00182613)
(2.54448 0.00118565 0.00174956)
(2.53234 0.00132555 0.00167865)
(2.5205 0.00144834 0.00161243)
(2.50896 0.00155604 0.00155064)
(2.4977 0.00165034 0.00149265)
(2.4867 0.00173274 0.00143821)
(2.47597 0.00180455 0.00138672)
(2.46548 0.00186698 0.00133816)
(2.45522 0.00192098 0.00129203)
(2.4452 0.00196742 0.0012482)
(2.43539 0.00200709 0.00120626)
(2.42579 0.00204085 0.00116645)
(2.4164 0.00206936 0.00112864)
(2.40721 0.00209325 0.00109301)
(2.3982 0.00211294 0.00105923)
(2.38938 0.0021289 0.00102743)
(2.38073 0.0021414 0.000997118)
(2.37226 0.00215071 0.000968116)
(2.36395 0.00215709 0.000939939)
(2.3558 0.0021609 0.000912831)
(2.34781 0.00216237 0.000886731)
(2.33997 0.00216174 0.000862008)
(2.33227 0.00215917 0.000838541)
(2.32472 0.00215492 0.000816596)
(2.31731 0.00214905 0.000795799)
(2.31003 0.00214169 0.00077605)
(2.30288 0.0021329 0.000756847)
(2.29585 0.00212289 0.000738334)
(2.28895 0.00211173 0.000720287)
(2.28217 0.00209955 0.000702882)
(2.27551 0.00208644 0.000685884)
(2.26896 0.00207259 0.00066958)
(2.26252 0.00205803 0.000653792)
(2.25619 0.00204284 0.000638667)
(2.24996 0.00202704 0.000623936)
(2.24384 0.00201081 0.000609837)
(2.23782 0.00199415 0.00059622)
(2.2319 0.00197713 0.000583285)
(2.22608 0.00195967 0.000570824)
(2.22035 0.00194183 0.000559036)
(2.21471 0.00192348 0.000547646)
(2.20916 0.00190463 0.00053661)
(2.20369 0.0018853 0.000525528)
(2.19832 0.0018658 0.000514603)
(2.19302 0.00184643 0.000503765)
(2.18781 0.00182778 0.000493599)
(2.18268 0.00181057 0.000483592)
(2.17761 0.0017963 0.000476419)
(2.17265 0.00178432 0.000465487)
(2.16765 0.00178231 0.000472745)
(2.16297 0.00175928 0.000421677)
(2.15757 0.00179986 0.000528337)
(2.15445 0.00156393 -2.5669e-005)
(2.14701 0.0018203 0.000819317)
(9.60254 0.0605109 0.149743)
(8.94959 0.150657 0.296604)
(8.27293 0.19741 0.32182)
(7.55507 0.216043 0.296413)
(6.87953 0.216757 0.252627)
(6.29193 0.202774 0.201371)
(5.78703 0.179348 0.15064)
(5.35096 0.152543 0.106355)
(4.97786 0.125707 0.0706759)
(4.66405 0.0998597 0.0432686)
(4.40336 0.0754055 0.0230263)
(4.18836 0.0527927 0.0087412)
(4.01226 0.032451 -0.000812955)
(3.86916 0.0147129 -0.00680558)
(3.75357 -0.000195052 -0.0102388)
(3.66046 -0.0122033 -0.01188)
(3.58539 -0.0214364 -0.0122737)
(3.52436 -0.0281793 -0.01181)
(3.47407 -0.0327868 -0.0107906)
(3.43188 -0.0356221 -0.00945444)
(3.39571 -0.0370294 -0.00798433)
(3.364 -0.0373202 -0.00651057)
(3.33552 -0.0367667 -0.00511805)
(3.30941 -0.0356008 -0.00385512)
(3.28505 -0.034015 -0.002744)
(3.26199 -0.0321644 -0.00178903)
(3.23995 -0.0301706 -0.000984713)
(3.21873 -0.0281259 -0.000320036)
(3.19822 -0.0260978 0.000218771)
(3.17834 -0.0241332 0.000646621)
(3.15904 -0.0222629 0.000978231)
(3.14028 -0.0205049 0.00122757)
(3.12205 -0.0188681 0.00140799)
(3.10433 -0.0173549 0.00153185)
(3.08711 -0.0159629 0.00161037)
(3.07039 -0.0146866 0.00165323)
(3.05414 -0.0135186 0.00166882)
(3.03836 -0.0124503 0.00166388)
(3.02303 -0.011473 0.00164416)
(3.00814 -0.0105786 0.00161532)
(2.99367 -0.00975918 0.00158176)
(2.97959 -0.00900772 0.00154691)
(2.96591 -0.00831753 0.00151287)
(2.9526 -0.00768263 0.00148087)
(2.93964 -0.00709763 0.00145132)
(2.92702 -0.00655771 0.0014244)
(2.91473 -0.00605854 0.00139974)
(2.90275 -0.0055963 0.00137687)
(2.89107 -0.00516754 0.00135519)
(2.87968 -0.00476921 0.00133442)
(2.86857 -0.00439864 0.00131423)
(2.85773 -0.00405345 0.00129433)
(2.84714 -0.00373149 0.00127443)
(2.8368 -0.00343084 0.0012545)
(2.8267 -0.00314978 0.00123436)
(2.81682 -0.0028868 0.00121394)
(2.80717 -0.00264042 0.00119323)
(2.79773 -0.0024093 0.00117259)
(2.78849 -0.00219221 0.00115224)
(2.77945 -0.00198809 0.00113244)
(2.7706 -0.00179603 0.00111316)
(2.76194 -0.00161529 0.00109446)
(2.75345 -0.00144515 0.00107597)
(2.74514 -0.00128501 0.0010574)
(2.73699 -0.00113418 0.00103846)
(2.729 -0.000992045 0.00101934)
(2.72117 -0.000858003 0.00100028)
(2.71349 -0.00073159 0.000981728)
(2.70596 -0.000612337 0.000963928)
(2.69856 -0.000499882 0.000947113)
(2.69131 -0.000393887 0.000931093)
(2.68418 -0.000294088 0.000915581)
(2.67719 -0.000200142 0.000900176)
(2.67032 -0.000111754 0.000884812)
(2.66358 -2.86001e-005 0.000869415)
(2.65695 4.95761e-005 0.000854041)
(2.65043 0.000123112 0.000838675)
(2.64403 0.000192263 0.000823496)
(2.63774 0.000257294 0.000808535)
(2.63156 0.00031838 0.000793844)
(2.62548 0.000375793 0.000779373)
(2.6195 0.000429714 0.000765245)
(2.61362 0.000480334 0.000751483)
(2.60783 0.000527712 0.000738148)
(2.60214 0.000571959 0.000725188)
(2.59654 0.00061308 0.000712622)
(2.59103 0.000651156 0.000700303)
(2.58561 0.000686239 0.000688026)
(2.58027 0.000718608 0.000675576)
(2.57502 0.00074857 0.000663063)
(2.56985 0.000776745 0.000650713)
(2.56475 0.000803722 0.000639083)
(2.55974 0.000831026 0.000628197)
(2.55479 0.000859199 0.000620376)
(2.54993 0.000892706 0.000610599)
(2.54504 0.000928358 0.00061797)
(2.54045 0.000979462 0.000572714)
(2.53512 0.0010322 0.00067959)
(2.5321 0.0010786 0.000121727)
(2.52447 0.00126977 0.00100025)
(9.59974 0.0406569 0.149829)
(8.92613 0.110298 0.298261)
(8.21809 0.152594 0.324689)
(7.47106 0.169483 0.298856)
(6.77089 0.170129 0.253451)
(6.16395 0.16009 0.199945)
(5.6487 0.14297 0.146805)
(5.21316 0.122309 0.100539)
(4.85021 0.100573 0.0636492)
(4.5536 0.0788217 0.0357233)
(4.31449 0.0575099 0.0154079)
(4.12302 0.0370881 0.0013143)
(3.9704 0.0180748 -0.00786623)
(3.84937 0.000964226 -0.0133577)
(3.75386 -0.0138169 -0.016232)
(3.67858 -0.0260322 -0.0173044)
(3.61894 -0.0356347 -0.0171584)
(3.57117 -0.0427441 -0.0162147)
(3.53228 -0.0476133 -0.0147866)
(3.49996 -0.0505696 -0.0131101)
(3.47241 -0.0519608 -0.0113567)
(3.4483 -0.0521198 -0.00964344)
(3.4266 -0.0513456 -0.00804168)
(3.40659 -0.049896 -0.00658852)
(3.38776 -0.0479853 -0.0052967)
(3.36976 -0.0457865 -0.00416402)
(3.35236 -0.043435 -0.00318138)
(3.33542 -0.0410325 -0.00233742)
(3.31889 -0.0386527 -0.00162056)
(3.30271 -0.0363466 -0.00101821)
(3.28687 -0.0341474 -0.000518553)
(3.27137 -0.0320743 -0.000110235)
(3.25621 -0.0301364 0.000217527)
(3.2414 -0.0283355 0.00047539)
(3.22694 -0.0266685 0.000673456)
(3.21284 -0.0251294 0.000821302)
(3.19909 -0.0237097 0.000927842)
(3.18571 -0.0224002 0.00100177)
(3.17268 -0.0211911 0.00105062)
(3.16 -0.0200736 0.00108018)
(3.14765 -0.0190389 0.0010956)
(3.13564 -0.0180793 0.00110157)
(3.12395 -0.0171875 0.00110174)
(3.11256 -0.0163569 0.0010987)
(3.10147 -0.0155816 0.00109401)
(3.09067 -0.0148564 0.00108869)
(3.08014 -0.0141768 0.00108299)
(3.06986 -0.0135385 0.00107689)
(3.05984 -0.0129378 0.00107011)
(3.05006 -0.0123717 0.00106258)
(3.04051 -0.0118373 0.0010541)
(3.03118 -0.0113319 0.00104459)
(3.02206 -0.0108535 0.00103388)
(3.01314 -0.0103999 0.00102203)
(3.00443 -0.0099694 0.00100903)
(2.99589 -0.00956029 0.000995007)
(2.98754 -0.00917102 0.000980197)
(2.97937 -0.0088002 0.000965103)
(2.97137 -0.00844661 0.000950105)
(2.96352 -0.00810917 0.000935525)
(2.95584 -0.00778685 0.000921434)
(2.94831 -0.00747879 0.000907829)
(2.94092 -0.00718416 0.000894413)
(2.93368 -0.00690224 0.000880921)
(2.92658 -0.00663228 0.000867171)
(2.91961 -0.00637363 0.000853428)
(2.91277 -0.00612567 0.000840044)
(2.90606 -0.00588789 0.000827468)
(2.89947 -0.00565977 0.000815919)
(2.893 -0.00544092 0.000805546)
(2.88665 -0.00523097 0.000796099)
(2.8804 -0.00502956 0.000787234)
(2.87427 -0.00483632 0.000778505)
(2.86825 -0.0046509 0.000769752)
(2.86233 -0.00447296 0.000760824)
(2.85651 -0.00430217 0.000751744)
(2.85078 -0.00413815 0.000742494)
(2.84516 -0.0039806 0.000733251)
(2.83963 -0.00382924 0.000724057)
(2.83419 -0.0036838 0.000715007)
(2.82884 -0.00354397 0.000706078)
(2.82358 -0.00340955 0.000697391)
(2.8184 -0.00328035 0.000688948)
(2.81331 -0.0031563 0.000680799)
(2.8083 -0.00303728 0.00067285)
(2.80337 -0.00292327 0.000665094)
(2.79852 -0.0028142 0.000657366)
(2.79375 -0.00270995 0.000649542)
(2.78904 -0.00261021 0.000641473)
(2.78442 -0.00251471 0.000633353)
(2.77986 -0.00242285 0.000625496)
(2.77538 -0.00233414 0.000618521)
(2.77096 -0.00224689 0.000612864)
(2.7666 -0.00216118 0.000610262)
(2.76231 -0.00206972 0.000608818)
(2.75801 -0.00198103 0.000620938)
(2.75392 -0.00185388 0.000603379)
(2.74923 -0.00175347 0.000699096)
(2.74643 -0.00149575 0.000293478)
(2.73952 -0.00119274 0.000992307)
(9.59773 0.0266141 0.14984)
(8.91039 0.0729638 0.299017)
(8.18167 0.104514 0.326032)
(7.4169 0.120612 0.299956)
(6.70495 0.125489 0.25394)
(6.09009 0.122359 0.199783)
(5.57011 0.113033 0.145846)
(5.1338 0.099424 0.0986334)
(4.77414 0.0834136 0.0608242)
(4.48423 0.0662734 0.032158)
(4.25441 0.0487596 0.0113355)
(4.07391 0.0314695 -0.00301457)
(3.93299 0.0149947 -0.0121981)
(3.82354 -0.000120286 -0.0174728)
(3.73877 -0.013465 -0.0199692)
(3.67296 -0.02473 -0.0205912)
(3.62143 -0.0337649 -0.0200093)
(3.58042 -0.0405935 -0.0187013)
(3.54708 -0.0453846 -0.0170038)
(3.51929 -0.0483961 -0.015149)
(3.49547 -0.0499225 -0.0132952)
(3.47448 -0.0502591 -0.0115401)
(3.45547 -0.049679 -0.00993783)
(3.43785 -0.0484241 -0.00850878)
(3.42118 -0.0467008 -0.00725071)
(3.40518 -0.0446792 -0.0061505)
(3.38969 -0.0424947 -0.0051914)
(3.37459 -0.0402505 -0.00435801)
(3.35983 -0.0380224 -0.00363669)
(3.34538 -0.0358628 -0.00301754)
(3.33124 -0.0338061 -0.00249116)
(3.3174 -0.0318721 -0.00204919)
(3.30387 -0.0300702 -0.00168276)
(3.29066 -0.0284021 -0.00138302)
(3.27777 -0.0268643 -0.00114101)
(3.26521 -0.0254504 -0.000947808)
(3.25297 -0.0241515 -0.000795037)
(3.24106 -0.0229583 -0.000674487)
(3.22946 -0.0218612 -0.000579154)
(3.21818 -0.0208509 -0.000502608)
(3.20721 -0.0199182 -0.000439476)
(3.19653 -0.0190549 -0.000385073)
(3.18614 -0.0182535 -0.000336118)
(3.17602 -0.0175073 -0.000290443)
(3.16617 -0.0168103 -0.000246963)
(3.15657 -0.0161574 -0.000205202)
(3.14721 -0.0155442 -0.000165185)
(3.13809 -0.0149667 -0.0001273)
(3.12919 -0.0144215 -9.19908e-005)
(3.1205 -0.0139058 -5.96031e-005)
(3.11203 -0.013417 -3.03889e-005)
(3.10375 -0.0129529 -4.5341e-006)
(3.09566 -0.0125116 1.78629e-005)
(3.08776 -0.0120914 3.68831e-005)
(3.08003 -0.0116907 5.26488e-005)
(3.07247 -0.0113083 6.54913e-005)
(3.06508 -0.0109427 7.58367e-005)
(3.05784 -0.0105929 8.43511e-005)
(3.05076 -0.0102578 9.1543e-005)
(3.04383 -0.00993672 9.78871e-005)
(3.03703 -0.00962868 0.000103578)
(3.03038 -0.00933304 0.000108768)
(3.02386 -0.00904915 0.000113327)
(3.01746 -0.00877642 0.000117199)
(3.01119 -0.00851425 0.000120366)
(3.00504 -0.00826214 0.000123141)
(2.99901 -0.00801962 0.000125865)
(2.99309 -0.00778625 0.00012893)
(2.98729 -0.00756163 0.000132533)
(2.98158 -0.00734539 0.000136763)
(2.97599 -0.00713721 0.000141412)
(2.97049 -0.00693674 0.000146169)
(2.96509 -0.00674364 0.000150672)
(2.95979 -0.00655761 0.000154758)
(2.95457 -0.00637836 0.00015832)
(2.94945 -0.00620555 0.000161376)
(2.94442 -0.00603888 0.00016394)
(2.93947 -0.00587807 0.000166136)
(2.93461 -0.0057229 0.000168031)
(2.92983 -0.00557308 0.000169715)
(2.92513 -0.00542838 0.00017122)
(2.9205 -0.00528865 0.00017264)
(2.91595 -0.00515379 0.000174018)
(2.91148 -0.00502372 0.00017538)
(2.90708 -0.00489843 0.000176665)
(2.90275 -0.00477794 0.000177838)
(2.89849 -0.00466224 0.000178813)
(2.8943 -0.00455126 0.000179517)
(2.89017 -0.00444488 0.000179921)
(2.88611 -0.00434297 0.000180215)
(2.88211 -0.00424528 0.000180805)
(2.87818 -0.00415157 0.000182226)
(2.8743 -0.00406092 0.000185342)
(2.87048 -0.0039735 0.000191143)
(2.86671 -0.0038839 0.00020141)
(2.86294 -0.00379774 0.000220995)
(2.8593 -0.00368096 0.000237739)
(2.85525 -0.00358134 0.000321417)
(2.85258 -0.00334302 9.9095e-005)
(2.84668 -0.00306252 0.000587162)
(9.59642 0.0156522 0.14979)
(8.90135 0.042621 0.29947)
(8.16055 0.0622757 0.327342)
(7.38252 0.0735684 0.302058)
(6.65831 0.0774964 0.256621)
(6.03283 0.0757489 0.202661)
(5.5047 0.0696577 0.14836)
(5.06383 0.0603197 0.100313)
(4.70356 0.0487984 0.0615422)
(4.41636 0.0359847 0.032123)
(4.19154 0.0225243 0.0109188)
(4.01739 0.0089278 -0.00343762)
(3.88346 -0.00429543 -0.0123486)
(3.78108 -0.016631 -0.0171975)
(3.70309 -0.027627 -0.0192275)
(3.64347 -0.0369577 -0.01943)
(3.59732 -0.0444497 -0.0185228)
(3.56079 -0.0500823 -0.0169936)
(3.53105 -0.0539609 -0.0151645)
(3.50604 -0.0562754 -0.0132452)
(3.48432 -0.0572614 -0.0113722)
(3.46487 -0.0571667 -0.00962586)
(3.44699 -0.0562293 -0.00804653)
(3.43017 -0.054664 -0.00664601)
(3.41409 -0.0526579 -0.00542021)
(3.39855 -0.0503682 -0.00435843)
(3.38344 -0.0479222 -0.00344591)
(3.36868 -0.0454193 -0.00266897)
(3.35428 -0.0429336 -0.00201433)
(3.34021 -0.0405176 -0.00147056)
(3.3265 -0.038206 -0.00102696)
(3.31315 -0.0360198 -0.00067243)
(3.30017 -0.0339695 -0.000396396)
(3.28757 -0.0320587 -0.000187166)
(3.27534 -0.0302851 -3.40543e-005)
(3.26349 -0.0286436 7.41173e-005)
(3.252 -0.0271265 0.000147092)
(3.24088 -0.0257254 0.000194199)
(3.23011 -0.0244315 0.000223179)
(3.21968 -0.0232357 0.000240593)
(3.20957 -0.0221294 0.000251721)
(3.19978 -0.0211043 0.000260349)
(3.19027 -0.0201531 0.000269128)
(3.18105 -0.0192687 0.000279196)
(3.17209 -0.0184449 0.000291047)
(3.16338 -0.017676 0.00030429)
(3.15491 -0.0169568 0.000318192)
(3.14666 -0.0162829 0.000331794)
(3.13863 -0.0156502 0.000344183)
(3.1308 -0.0150551 0.000354754)
(3.12317 -0.0144945 0.000362923)
(3.11572 -0.0139654 0.0003685)
(3.10845 -0.0134653 0.000371197)
(3.10134 -0.0129921 0.000371175)
(3.0944 -0.0125438 0.00036844)
(3.08762 -0.0121184 0.000363448)
(3.08098 -0.0117143 0.000356575)
(3.07449 -0.01133 0.000348548)
(3.06813 -0.0109643 0.000339827)
(3.06191 -0.0106159 0.000330936)
(3.05581 -0.0102837 0.000322051)
(3.04984 -0.00996685 0.000313369)
(3.04398 -0.00966445 0.000304826)
(3.03824 -0.00937568 0.000296498)
(3.03261 -0.00909978 0.000288397)
(3.02709 -0.00883608 0.000280808)
(3.02166 -0.00858396 0.000273901)
(3.01634 -0.00834279 0.000267953)
(3.01112 -0.00811202 0.000262966)
(3.00599 -0.00789116 0.000258993)
(3.00095 -0.00767972 0.000255762)
(2.99599 -0.00747721 0.000253111)
(2.99113 -0.00728317 0.00025067)
(2.98634 -0.00709719 0.000248373)
(2.98164 -0.00691887 0.000246008)
(2.97701 -0.0067478 0.000243657)
(2.97247 -0.00658357 0.000241202)
(2.96799 -0.00642587 0.0002388)
(2.96359 -0.00627437 0.000236372)
(2.95926 -0.00612875 0.000234062)
(2.955 -0.00598871 0.000231775)
(2.95081 -0.00585408 0.000229672)
(2.94668 -0.00572469 0.000227684)
(2.94262 -0.00560047 0.000225935)
(2.93862 -0.00548135 0.000224247)
(2.93468 -0.00536737 0.00022267)
(2.9308 -0.00525852 0.000221016)
(2.92698 -0.00515485 0.000219359)
(2.92321 -0.00505634 0.00021759)
(2.91951 -0.00496315 0.000216025)
(2.91585 -0.00487544 0.000214911)
(2.91225 -0.00479347 0.000214831)
(2.9087 -0.00471767 0.000216593)
(2.9052 -0.00464823 0.000220987)
(2.90174 -0.00458603 0.000231386)
(2.89829 -0.00452848 0.00024934)
(2.89492 -0.00447997 0.000277667)
(2.89123 -0.00441795 0.000350307)
(2.88867 -0.00438663 0.000208925)
(2.8832 -0.00420481 0.000573257)
(9.59529 0.00523558 0.149688)
(8.89532 0.0186866 0.299205)
(8.14825 0.033198 0.326665)
(7.36411 0.0439039 0.300621)
(6.63595 0.0487922 0.254339)
(6.00944 0.0489815 0.199636)
(5.4826 0.0460482 0.144647)
(5.0448 0.0408343 0.0958889)
(4.68913 0.0338206 0.0564542)
(4.40762 0.0255019 0.0265699)
(4.189 0.0163726 0.00519557)
(4.02117 0.00685019 -0.00904084)
(3.89332 -0.00268253 -0.0176002)
(3.79656 -0.01184 -0.0219599)
(3.72363 -0.0202531 -0.0234679)
(3.66845 -0.0276196 -0.0232003)
(3.62611 -0.0337423 -0.0219159)
(3.59275 -0.0385382 -0.0201018)
(3.56554 -0.0420263 -0.0180597)
(3.54247 -0.044307 -0.0159715)
(3.52215 -0.0455326 -0.0139484)
(3.50364 -0.0458791 -0.0120531)
(3.48628 -0.0455238 -0.0103177)
(3.46966 -0.0446333 -0.0087557)
(3.45352 -0.0433564 -0.0073669)
(3.43771 -0.0418208 -0.00614593)
(3.42215 -0.0401312 -0.00508302)
(3.40682 -0.0383691 -0.00416873)
(3.39175 -0.0365955 -0.00339261)
(3.37695 -0.0348531 -0.00274342)
(3.36245 -0.0331705 -0.00220997)
(3.34829 -0.0315653 -0.00177873)
(3.33447 -0.030047 -0.00143708)
(3.32102 -0.0286189 -0.00117024)
(3.30795 -0.0272805 -0.000965301)
(3.29525 -0.0260284 -0.000808681)
(3.28292 -0.0248578 -0.000689153)
(3.27096 -0.0237634 -0.000596322)
(3.25935 -0.0227393 -0.000521879)
(3.24808 -0.02178 -0.000459214)
(3.23715 -0.02088 -0.000403201)
(3.22653 -0.0200342 -0.000350623)
(3.2162 -0.0192381 -0.00029929)
(3.20616 -0.0184873 -0.000248585)
(3.19639 -0.0177781 -0.000198427)
(3.18688 -0.017107 -0.000149455)
(3.17761 -0.0164709 -0.000102537)
(3.16856 -0.0158671 -5.84476e-005)
(3.15974 -0.0152931 -1.80585e-005)
(3.15112 -0.0147467 1.83136e-005)
(3.14271 -0.0142261 5.01048e-005)
(3.13448 -0.0137295 7.74231e-005)
(3.12644 -0.0132554 0.00010003)
(3.11856 -0.0128025 0.000118386)
(3.11086 -0.0123695 0.000132615)
(3.10331 -0.0119552 0.000143396)
(3.09592 -0.0115587 0.000151116)
(3.08868 -0.0111791 0.000156541)
(3.08157 -0.0108154 0.000160095)
(3.07461 -0.0104669 0.000162377)
(3.06777 -0.0101329 0.000163621)
(3.06107 -0.00981285 0.000164131)
(3.05448 -0.00950609 0.000163903)
(3.04802 -0.00921206 0.000163143)
(3.04166 -0.00893026 0.00016189)
(3.03542 -0.00866019 0.000160495)
(3.02929 -0.00840143 0.00015903)
(3.02326 -0.00815347 0.000157795)
(3.01734 -0.00791592 0.000156667)
(3.01151 -0.00768832 0.000155808)
(3.00577 -0.00747032 0.000154938)
(3.00013 -0.00726144 0.000154164)
(2.99457 -0.00706134 0.000153171)
(2.98911 -0.00686962 0.000152145)
(2.98373 -0.00668596 0.000150833)
(2.97843 -0.00650996 0.000149475)
(2.97321 -0.00634128 0.000147828)
(2.96807 -0.0061796 0.000146177)
(2.96301 -0.00602463 0.000144324)
(2.95802 -0.00587606 0.00014257)
(2.9531 -0.00573362 0.000140707)
(2.94826 -0.00559713 0.000139022)
(2.94348 -0.00546647 0.000137309)
(2.93877 -0.00534151 0.000135831)
(2.93413 -0.00522223 0.000134315)
(2.92955 -0.00510864 0.00013298)
(2.92503 -0.00500084 0.000131526)
(2.92058 -0.00489892 0.000130182)
(2.91618 -0.00480313 0.000128709)
(2.91185 -0.00471386 0.000127548)
(2.90757 -0.00463188 0.000126723)
(2.90334 -0.00455795 0.000126933)
(2.89917 -0.00449425 0.000128487)
(2.89505 -0.00444112 0.000132689)
(2.89098 -0.00440734 0.00014058)
(2.8869 -0.00438178 0.000158788)
(2.88298 -0.00441543 0.00017031)
(2.87858 -0.00441072 0.000261005)
(2.87581 -0.00464502 -1.21617e-005)
(2.86952 -0.00468283 0.000554022)
(9.60674 -0.020137 0.14985)
(8.93638 -0.0425603 0.301135)
(8.20771 -0.0474562 0.331623)
(7.42653 -0.044711 0.308128)
(6.6921 -0.0404962 0.263173)
(6.05515 -0.0362527 0.208976)
(5.51543 -0.0322088 0.15402)
(5.06339 -0.0290193 0.104844)
(4.69408 -0.0274876 0.0645822)
(4.40144 -0.0280486 0.0336739)
(4.17518 -0.0306692 0.0113508)
(4.00303 -0.0349498 -0.00359783)
(3.87368 -0.0402938 -0.0126036)
(3.77759 -0.0460441 -0.0172012)
(3.70669 -0.0516035 -0.0188114)
(3.65423 -0.0565069 -0.0185812)
(3.61472 -0.0604488 -0.0173311)
(3.58391 -0.0632748 -0.0155887)
(3.55875 -0.0649578 -0.0136778)
(3.53709 -0.0655732 -0.0117786)
(3.51752 -0.0652682 -0.00998981)
(3.49915 -0.0642151 -0.00835797)
(3.48139 -0.062579 -0.00690051)
(3.4639 -0.0605116 -0.00561994)
(3.44649 -0.0581486 -0.00450657)
(3.42908 -0.0556103 -0.00354973)
(3.41166 -0.0529976 -0.0027345)
(3.39427 -0.0503868 -0.00204874)
(3.37694 -0.0478319 -0.00147996)
(3.35973 -0.0453679 -0.00101588)
(3.34269 -0.0430169 -0.000644781)
(3.32585 -0.0407908 -0.000353064)
(3.30925 -0.0386943 -0.000128869)
(3.29291 -0.0367275 4.12406e-005)
(3.27684 -0.0348869 0.000168361)
(3.26107 -0.0331669 0.000263731)
(3.24558 -0.0315608 0.000336315)
(3.23039 -0.0300617 0.000393652)
(3.2155 -0.028662 0.000441664)
(3.2009 -0.0273547 0.00048419)
(3.18658 -0.0261328 0.000524295)
(3.17254 -0.0249895 0.000563102)
(3.15878 -0.0239187 0.000601413)
(3.14527 -0.0229144 0.000638787)
(3.13203 -0.0219715 0.000674676)
(3.11904 -0.0210847 0.000708255)
(3.10629 -0.0202497 0.00073862)
(3.09377 -0.0194622 0.000765372)
(3.08149 -0.0187186 0.00078783)
(3.06943 -0.0180156 0.000806168)
(3.05759 -0.01735 0.000820062)
(3.04596 -0.0167193 0.000830065)
(3.03454 -0.0161209 0.000836154)
(3.02332 -0.0155527 0.000839002)
(3.0123 -0.0150127 0.000838845)
(3.00147 -0.0144991 0.000836413)
(2.99082 -0.0140102 0.000832107)
(2.98036 -0.0135445 0.000826507)
(2.97008 -0.0131006 0.000819974)
(2.95998 -0.0126772 0.000812844)
(2.95004 -0.0122732 0.000805319)
(2.94027 -0.0118876 0.000797513)
(2.93067 -0.0115193 0.000789487)
(2.92122 -0.0111674 0.000781306)
(2.91193 -0.0108311 0.000772996)
(2.90279 -0.0105096 0.000764667)
(2.89379 -0.0102022 0.000756324)
(2.88494 -0.00990821 0.000748121)
(2.87624 -0.00962689 0.000739959)
(2.86767 -0.00935765 0.00073196)
(2.85924 -0.00909991 0.000723915)
(2.85094 -0.00885304 0.00071596)
(2.84277 -0.00861654 0.000707871)
(2.83472 -0.00838989 0.000699851)
(2.8268 -0.00817263 0.000691721)
(2.81901 -0.00796426 0.000683748)
(2.81133 -0.00776438 0.000675719)
(2.80377 -0.00757254 0.000667855)
(2.79632 -0.0073884 0.000659932)
(2.78899 -0.00721154 0.000652197)
(2.78176 -0.00704167 0.000644465)
(2.77465 -0.00687851 0.000637007)
(2.76764 -0.00672187 0.000629646)
(2.76073 -0.00657155 0.000622597)
(2.75392 -0.00642747 0.000615592)
(2.74721 -0.00628957 0.00060878)
(2.7406 -0.00615792 0.000601894)