/*--------------------------------*- C++ -*----------------------------------*\
| =========                 |                                                 |
| \\      /  F ield         | OpenFOAM: The Open Source CFD Toolbox           |
|  \\    /   O peration     | Version:  5.x                                   |
|   \\  /    A nd           | Web:      www.OpenFOAM.org                      |
|    \\/     M anipulation  |                                                 |
\*---------------------------------------------------------------------------*/
/*   Windows 32 and 64 bit porting by blueCAPE: http://www.bluecape.com.pt   *\
|  Based on Windows porting (2.0.x v4) by Symscape: http://www.symscape.com   |
\*---------------------------------------------------------------------------*/
FoamFile
{
    version     2.0;
    format      ascii;
    class       surfaceScalarField;
    location    "20";
    object      phi;
}
// * * * * * * * * * * * * * * * * * * * * * * * * * * * * * * * * * * * * * //

dimensions      [0 3 -1 0 0 0 0];

internalField   nonuniform List<scalar> 
27900
(
2.58723e-008
1.82496e-009
1.82478e-009
2.13755e-008
2.24887e-009
2.24864e-009
1.71604e-008
2.10805e-009
2.10777e-009
1.3608e-008
1.77631e-009
1.77624e-009
1.08739e-008
1.36669e-009
1.36698e-009
8.90887e-009
9.81824e-010
9.82329e-010
7.52505e-009
6.91258e-010
6.9172e-010
6.5226e-009
5.00836e-010
5.01122e-010
5.76131e-009
3.8057e-010
3.807e-010
5.16112e-009
3.0023e-010
3.00275e-010
4.67858e-009
2.4149e-010
2.41498e-010
4.28874e-009
1.9513e-010
1.95113e-010
3.97562e-009
1.56732e-010
1.56678e-010
3.72713e-009
1.24392e-010
1.24281e-010
3.53284e-009
9.72991e-011
9.71158e-011
3.38317e-009
7.50228e-011
7.47672e-011
3.26934e-009
5.71463e-011
5.68284e-011
3.18345e-009
4.32046e-011
4.28425e-011
3.11881e-009
3.25946e-011
3.22098e-011
3.06985e-009
2.47429e-011
2.43615e-011
3.03218e-009
1.90691e-011
1.87127e-011
3.00236e-009
1.51057e-011
1.47903e-011
2.97787e-009
1.24118e-011
1.21462e-011
2.95684e-009
1.06516e-011
1.04403e-011
2.93802e-009
9.53307e-012
9.37573e-012
2.92049e-009
8.86933e-012
8.76236e-012
2.90371e-009
8.48766e-012
8.42487e-012
2.88731e-009
8.2956e-012
8.26996e-012
2.87109e-009
8.1997e-012
8.20275e-012
2.85489e-009
8.17176e-012
8.19429e-012
2.83869e-009
8.14613e-012
8.18058e-012
2.8225e-009
8.11577e-012
8.15813e-012
2.80639e-009
8.04541e-012
8.09281e-012
2.7904e-009
7.96359e-012
8.01219e-012
2.7746e-009
7.84693e-012
7.89268e-012
2.75904e-009
7.72735e-012
7.76774e-012
2.74376e-009
7.59195e-012
7.62342e-012
2.72872e-009
7.4812e-012
7.49886e-012
2.71393e-009
7.3675e-012
7.36772e-012
2.69936e-009
7.26851e-012
7.25165e-012
2.68503e-009
7.15738e-012
7.12592e-012
2.67089e-009
7.06004e-012
7.01708e-012
2.65697e-009
6.94963e-012
6.89889e-012
2.64324e-009
6.8452e-012
6.79147e-012
2.62975e-009
6.72912e-012
6.67638e-012
2.61644e-009
6.62815e-012
6.57881e-012
2.60334e-009
6.52274e-012
6.47902e-012
2.59043e-009
6.42927e-012
6.39459e-012
2.57773e-009
6.33106e-012
6.309e-012
2.56519e-009
6.24777e-012
6.24081e-012
2.55283e-009
6.16357e-012
6.17328e-012
2.54061e-009
6.09345e-012
6.12054e-012
2.52853e-009
6.02355e-012
6.06688e-012
2.51653e-009
5.9664e-012
6.0226e-012
2.50462e-009
5.90465e-012
5.96981e-012
2.49279e-009
5.84527e-012
5.91615e-012
2.48107e-009
5.77468e-012
5.84869e-012
2.46948e-009
5.70328e-012
5.77769e-012
2.45805e-009
5.62507e-012
5.69759e-012
2.44678e-009
5.55399e-012
5.62244e-012
2.43569e-009
5.48744e-012
5.54945e-012
2.42474e-009
5.43445e-012
5.48687e-012
2.41391e-009
5.38935e-012
5.42978e-012
2.40317e-009
5.35454e-012
5.38209e-012
2.39253e-009
5.31979e-012
5.33559e-012
2.38198e-009
5.28262e-012
5.28887e-012
2.37153e-009
5.239e-012
5.23883e-012
2.36118e-009
5.19305e-012
5.18955e-012
2.35094e-009
5.14427e-012
5.14029e-012
2.34081e-009
5.09346e-012
5.09072e-012
2.33078e-009
5.0434e-012
5.04299e-012
2.32084e-009
4.99555e-012
4.99805e-012
2.31099e-009
4.94856e-012
4.95486e-012
2.30123e-009
4.897e-012
4.90771e-012
2.29155e-009
4.84519e-012
4.86038e-012
2.28196e-009
4.79276e-012
4.8114e-012
2.27246e-009
4.74154e-012
4.76217e-012
2.26306e-009
4.68407e-012
4.70452e-012
2.25376e-009
4.62857e-012
4.64641e-012
2.24457e-009
4.57361e-012
4.58641e-012
2.23548e-009
4.5238e-012
4.53052e-012
2.22651e-009
4.46776e-012
4.46868e-012
2.21766e-009
4.41446e-012
4.41119e-012
2.20894e-009
4.35841e-012
4.35284e-012
2.20033e-009
4.30592e-012
4.30063e-012
2.19184e-009
4.24505e-012
4.24243e-012
2.18345e-009
4.1912e-012
4.19268e-012
2.17514e-009
4.14007e-012
4.14576e-012
2.1669e-009
4.09823e-012
4.10831e-012
2.15874e-009
4.04723e-012
4.06201e-012
2.15066e-009
3.99829e-012
4.01782e-012
2.14267e-009
3.94279e-012
3.96617e-012
2.13479e-009
3.88852e-012
3.915e-012
2.12704e-009
3.82998e-012
3.85842e-012
2.11944e-009
3.76032e-012
3.7887e-012
2.1118e-009
3.77843e-012
3.8023e-012
2.10475e-009
3.48498e-012
3.5032e-012
2.09669e-009
3.98454e-012
3.99731e-012
2.09447e-009
1.05667e-012
1.06936e-012
5.22384e-012
5.23571e-012
3.23589e-008
6.6552e-010
2.15552e-009
3.03062e-008
1.51656e-009
2.78546e-009
2.78e-008
1.76934e-009
2.84526e-009
2.50711e-008
1.80622e-009
2.69897e-009
2.23319e-008
1.67998e-009
2.42535e-009
1.97849e-008
1.43042e-009
2.09745e-009
1.75456e-008
1.14805e-009
1.78167e-009
1.56425e-008
8.97898e-010
1.50556e-009
1.40575e-008
6.96363e-010
1.26915e-009
1.27554e-008
5.35665e-010
1.06697e-009
1.16958e-008
4.05887e-010
8.95759e-010
1.08377e-008
3.00769e-010
7.52839e-010
1.0144e-008
2.16283e-010
6.34564e-010
9.58256e-009
1.49176e-010
5.36795e-010
9.12775e-009
9.65184e-011
4.55679e-010
8.75886e-009
5.58304e-011
3.88142e-010
8.4592e-009
2.51077e-011
3.31775e-010
8.21506e-009
2.68835e-012
2.84777e-010
8.01517e-009
-1.3002e-011
2.45622e-010
7.85032e-009
-2.33379e-011
2.13056e-010
7.713e-009
-2.94514e-011
1.85951e-010
7.59707e-009
-3.2265e-011
1.63381e-010
7.49765e-009
-3.25887e-011
1.44485e-010
7.41089e-009
-3.11128e-011
1.2858e-010
7.33384e-009
-2.84181e-011
1.15067e-010
7.26423e-009
-2.49653e-011
1.03523e-010
7.20039e-009
-2.11218e-011
9.35686e-011
7.14102e-009
-1.71577e-011
8.49525e-011
7.08522e-009
-1.32756e-011
7.74398e-011
7.03222e-009
-9.60369e-012
7.08858e-011
6.98157e-009
-6.24265e-012
6.51182e-011
6.93288e-009
-3.23154e-012
6.0033e-011
6.88596e-009
-5.8965e-013
5.55067e-011
6.84059e-009
1.71367e-012
5.14863e-011
6.79672e-009
3.68915e-012
4.7878e-011
6.75423e-009
5.38415e-012
4.46525e-011
6.7131e-009
6.82828e-012
4.1752e-011
6.67319e-009
8.07714e-012
3.91768e-011
6.63444e-009
9.14267e-012
3.68703e-011
6.59672e-009
1.00558e-011
3.48182e-011
6.56001e-009
1.08197e-011
3.29695e-011
6.52417e-009
1.14645e-011
3.13203e-011
6.48919e-009
1.19925e-011
2.98252e-011
6.45498e-009
1.24316e-011
2.84769e-011
6.42154e-009
1.27884e-011
2.72445e-011
6.38879e-009
1.30909e-011
2.6132e-011
6.35673e-009
1.33397e-011
2.51159e-011
6.32527e-009
1.35534e-011
2.41955e-011
6.29444e-009
1.37289e-011
2.33546e-011
6.26414e-009
1.38804e-011
2.25947e-011
6.23437e-009
1.40018e-011
2.19048e-011
6.20506e-009
1.41051e-011
2.12839e-011
6.17619e-009
1.41838e-011
2.0723e-011
6.14767e-009
1.4246e-011
2.02134e-011
6.1195e-009
1.42832e-011
1.97438e-011
6.09161e-009
1.43048e-011
1.93025e-011
6.06406e-009
1.43066e-011
1.88815e-011
6.03682e-009
1.42992e-011
1.84693e-011
6.00992e-009
1.42815e-011
1.8072e-011
5.98337e-009
1.42664e-011
1.769e-011
5.95719e-009
1.42519e-011
1.73361e-011
5.93132e-009
1.42432e-011
1.70031e-011
5.90574e-009
1.42349e-011
1.67042e-011
5.88041e-009
1.42303e-011
1.64295e-011
5.85534e-009
1.42203e-011
1.61834e-011
5.83047e-009
1.42014e-011
1.59424e-011
5.80585e-009
1.41676e-011
1.57166e-011
5.78144e-009
1.41232e-011
1.54941e-011
5.75728e-009
1.40657e-011
1.52888e-011
5.73333e-009
1.39975e-011
1.50815e-011
5.70962e-009
1.39202e-011
1.48918e-011
5.6861e-009
1.3839e-011
1.47064e-011
5.66281e-009
1.37502e-011
1.45387e-011
5.6397e-009
1.36522e-011
1.4362e-011
5.6168e-009
1.35467e-011
1.41967e-011
5.59409e-009
1.34389e-011
1.40265e-011
5.57159e-009
1.33278e-011
1.38679e-011
5.54929e-009
1.32123e-011
1.36907e-011
5.5272e-009
1.30966e-011
1.35214e-011
5.50533e-009
1.29853e-011
1.33448e-011
5.48368e-009
1.28768e-011
1.31857e-011
5.46225e-009
1.27654e-011
1.30126e-011
5.44106e-009
1.26509e-011
1.28551e-011
5.42011e-009
1.25327e-011
1.26906e-011
5.3994e-009
1.24083e-011
1.25423e-011
5.37892e-009
1.2275e-011
1.23735e-011
5.35867e-009
1.21425e-011
1.22212e-011
5.33862e-009
1.20175e-011
1.20664e-011
5.31876e-009
1.19003e-011
1.19364e-011
5.29908e-009
1.17822e-011
1.17887e-011
5.2796e-009
1.16644e-011
1.16536e-011
5.26031e-009
1.15466e-011
1.15041e-011
5.24124e-009
1.14284e-011
1.13613e-011
5.22239e-009
1.13158e-011
1.1205e-011
5.20381e-009
1.11948e-011
1.10196e-011
5.1853e-009
1.11573e-011
1.0995e-011
5.1674e-009
1.07729e-011
1.04557e-011
5.14877e-009
1.11131e-011
1.13012e-011
5.13624e-009
7.57554e-012
5.82947e-012
1.17507e-011
1.40215e-011
3.55142e-008
3.83273e-010
2.45344e-009
3.29247e-008
1.03705e-009
3.06902e-009
3.0399e-008
1.27821e-009
3.01695e-009
2.80295e-008
1.35041e-009
2.82501e-009
2.57956e-008
1.33664e-009
2.57676e-009
2.37013e-008
1.2341e-009
2.29003e-009
2.17743e-008
1.07369e-009
2.00101e-009
2.00396e-008
8.99336e-010
1.73311e-009
1.85124e-008
7.33883e-010
1.48986e-009
1.71969e-008
5.81409e-010
1.27011e-009
1.60864e-008
4.41377e-010
1.0755e-009
1.51639e-008
3.14989e-010
9.08643e-010
1.44058e-008
2.0453e-010
7.7006e-010
1.37859e-008
1.11515e-010
6.57621e-010
1.32788e-008
3.61062e-011
5.67468e-010
1.2862e-008
-2.27696e-011
4.95388e-010
1.2517e-008
-6.72441e-011
4.37374e-010
1.22292e-008
-9.9683e-011
3.90226e-010
1.1987e-008
-1.22138e-010
3.51503e-010
1.17808e-008
-1.3641e-010
3.19461e-010
1.16029e-008
-1.44107e-010
2.92692e-010
1.14472e-008
-1.46628e-010
2.70166e-010
1.1309e-008
-1.45191e-010
2.50951e-010
1.11845e-008
-1.40843e-010
2.34361e-010
1.10708e-008
-1.34464e-010
2.19775e-010
1.09659e-008
-1.26777e-010
2.0679e-010
1.08682e-008
-1.18356e-010
1.95039e-010
1.07765e-008
-1.09645e-010
1.8431e-010
1.06899e-008
-1.00976e-010
1.744e-010
1.06077e-008
-9.25829e-011
1.65223e-010
1.05294e-008
-8.46286e-011
1.56652e-010
1.04546e-008
-7.72015e-011
1.48639e-010
1.03831e-008
-7.03385e-011
1.41095e-010
1.03146e-008
-6.40322e-011
1.34006e-010
1.0249e-008
-5.82557e-011
1.27317e-010
1.01861e-008
-5.29626e-011
1.21034e-010
1.01257e-008
-4.81051e-011
1.15123e-010
1.00676e-008
-4.36347e-011
1.09604e-010
1.00117e-008
-3.95187e-011
1.04442e-010
9.95765e-009
-3.57267e-011
9.96307e-011
9.90546e-009
-3.22322e-011
9.5123e-011
9.85488e-009
-2.90086e-011
9.09115e-011
9.80582e-009
-2.60315e-011
8.69568e-011
9.75811e-009
-2.32731e-011
8.32487e-011
9.71172e-009
-2.07058e-011
7.97555e-011
9.66648e-009
-1.8307e-011
7.64756e-011
9.62236e-009
-1.60584e-011
7.33923e-011
9.57922e-009
-1.39451e-011
7.04998e-011
9.53705e-009
-1.19544e-011
6.77799e-011
9.49571e-009
-1.00799e-011
6.52249e-011
9.45518e-009
-8.31607e-012
6.2829e-011
9.41534e-009
-6.65755e-012
6.0585e-011
9.37615e-009
-5.09934e-012
5.84846e-011
9.33749e-009
-3.64029e-012
5.65146e-011
9.29933e-009
-2.27627e-012
5.46724e-011
9.26157e-009
-9.99817e-013
5.29406e-011
9.22425e-009
1.97989e-013
5.13053e-011
9.18731e-009
1.32387e-012
4.97402e-011
9.15081e-009
2.38848e-012
4.82496e-011
9.11471e-009
3.40064e-012
4.68226e-011
9.07906e-009
4.36613e-012
4.54698e-011
9.04377e-009
5.28311e-012
4.41816e-011
9.00884e-009
6.15162e-012
4.2983e-011
8.9742e-009
6.9704e-012
4.18642e-011
8.93985e-009
7.73866e-012
4.08297e-011
8.90573e-009
8.4503e-012
3.98471e-011
8.87187e-009
9.10556e-012
3.89254e-011
8.83824e-009
9.70485e-012
3.80427e-011
8.80487e-009
1.0252e-011
3.72084e-011
8.77174e-009
1.07461e-011
3.64004e-011
8.73885e-009
1.11931e-011
3.56448e-011
8.70618e-009
1.15958e-011
3.4926e-011
8.67373e-009
1.19574e-011
3.42549e-011
8.64149e-009
1.22755e-011
3.36017e-011
8.60947e-009
1.25571e-011
3.29895e-011
8.57765e-009
1.28061e-011
3.23977e-011
8.54604e-009
1.30286e-011
3.18386e-011
8.51465e-009
1.32235e-011
3.12811e-011
8.48349e-009
1.33988e-011
3.07541e-011
8.45255e-009
1.35573e-011
3.02392e-011
8.42185e-009
1.37028e-011
2.97546e-011
8.3914e-009
1.38291e-011
2.92656e-011
8.36121e-009
1.39385e-011
2.87997e-011
8.33128e-009
1.40281e-011
2.833e-011
8.30164e-009
1.40986e-011
2.78761e-011
8.27227e-009
1.41457e-011
2.74089e-011
8.24317e-009
1.41789e-011
2.69753e-011
8.21431e-009
1.42029e-011
2.65618e-011
8.18567e-009
1.42223e-011
2.61919e-011
8.15724e-009
1.42306e-011
2.58226e-011
8.12903e-009
1.42324e-011
2.54794e-011
8.10104e-009
1.42279e-011
2.51287e-011
8.0733e-009
1.42225e-011
2.47832e-011
8.04583e-009
1.42209e-011
2.44261e-011
8.01864e-009
1.42168e-011
2.40556e-011
7.99154e-009
1.42714e-011
2.3855e-011
7.96498e-009
1.40681e-011
2.31032e-011
7.93773e-009
1.43581e-011
2.38101e-011
7.91735e-009
1.21475e-011
1.56034e-011
1.48654e-011
2.88818e-011
3.99171e-008
2.63622e-010
2.78057e-009
3.67258e-008
7.33769e-010
3.49378e-009
3.3601e-008
9.72881e-010
3.4294e-009
3.06945e-008
1.05226e-009
3.20417e-009
2.8068e-008
1.05026e-009
2.91267e-009
2.57497e-008
9.85376e-010
2.56723e-009
2.37371e-008
8.74942e-010
2.2119e-009
2.20082e-008
7.4588e-010
1.88303e-009
2.05372e-008
6.15642e-010
1.58977e-009
1.93007e-008
4.8868e-010
1.32971e-009
1.82755e-008
3.6511e-010
1.10166e-009
1.7437e-008
2.46708e-010
9.06851e-010
1.67584e-008
1.37202e-010
7.45819e-010
1.62125e-008
4.04104e-011
6.16734e-010
1.57739e-008
-4.11337e-011
5.15503e-010
1.54208e-008
-1.06857e-010
4.36977e-010
1.51346e-008
-1.57354e-010
3.76172e-010
1.49001e-008
-1.94065e-010
3.28961e-010
1.47049e-008
-2.18905e-010
2.92066e-010
1.45397e-008
-2.33921e-010
2.6307e-010
1.43968e-008
-2.41031e-010
2.40142e-010
1.42705e-008
-2.41976e-010
2.2196e-010
1.41565e-008
-2.38259e-010
2.07406e-010
1.40515e-008
-2.31169e-010
1.9563e-010
1.39532e-008
-2.21763e-010
1.85892e-010
1.38598e-008
-2.10913e-010
1.77673e-010
1.37704e-008
-1.99291e-010
1.70526e-010
1.3684e-008
-1.87429e-010
1.64161e-010
1.36004e-008
-1.757e-010
1.58339e-010
1.35192e-008
-1.64391e-010
1.52927e-010
1.34402e-008
-1.53664e-010
1.47808e-010
1.33634e-008
-1.43629e-010
1.4291e-010
1.32888e-008
-1.34297e-010
1.38177e-010
1.32165e-008
-1.25677e-010
1.33591e-010
1.31464e-008
-1.17708e-010
1.29146e-010
1.30785e-008
-1.10349e-010
1.24842e-010
1.30128e-008
-1.03511e-010
1.20697e-010
1.29493e-008
-9.71719e-011
1.16741e-010
1.28877e-008
-9.12652e-011
1.12985e-010
1.28281e-008
-8.57739e-011
1.09417e-010
1.27702e-008
-8.06355e-011
1.06024e-010
1.2714e-008
-7.5838e-011
1.02787e-010
1.26594e-008
-7.13245e-011
9.96975e-011
1.26063e-008
-6.70817e-011
9.6735e-011
1.25546e-008
-6.30545e-011
9.38968e-011
1.25042e-008
-5.9239e-011
9.11713e-011
1.2455e-008
-5.55924e-011
8.85707e-011
1.24069e-008
-5.21178e-011
8.6079e-011
1.23599e-008
-4.87805e-011
8.37033e-011
1.23139e-008
-4.55953e-011
8.14232e-011
1.22689e-008
-4.25368e-011
7.92595e-011
1.22246e-008
-3.96217e-011
7.71925e-011
1.21811e-008
-3.6827e-011
7.52379e-011
1.21382e-008
-3.41727e-011
7.33684e-011
1.20959e-008
-3.16336e-011
7.1604e-011
1.20541e-008
-2.92178e-011
6.9911e-011
1.20127e-008
-2.68931e-011
6.8295e-011
1.19718e-008
-2.46687e-011
6.67141e-011
1.19314e-008
-2.25188e-011
6.51921e-011
1.18914e-008
-2.04556e-011
6.37045e-011
1.18519e-008
-1.84603e-011
6.2281e-011
1.18127e-008
-1.65546e-011
6.09024e-011
1.17739e-008
-1.47256e-011
5.96151e-011
1.17354e-008
-1.29906e-011
5.83994e-011
1.16972e-008
-1.13356e-011
5.72739e-011
1.16591e-008
-9.77807e-012
5.61923e-011
1.16213e-008
-8.30384e-012
5.51752e-011
1.15837e-008
-6.92452e-012
5.41858e-011
1.15463e-008
-5.6251e-012
5.32444e-011
1.15091e-008
-4.4179e-012
5.23187e-011
1.14721e-008
-3.28698e-012
5.14498e-011
1.14353e-008
-2.23952e-012
5.06125e-011
1.13987e-008
-1.26026e-012
4.98302e-011
1.13622e-008
-3.59277e-013
4.90623e-011
1.13258e-008
4.79033e-013
4.83426e-011
1.12896e-008
1.25202e-012
4.76389e-011
1.12536e-008
1.97634e-012
4.69722e-011
1.12178e-008
2.64707e-012
4.63021e-011
1.11821e-008
3.28069e-012
4.56676e-011
1.11466e-008
3.8743e-012
4.50395e-011
1.11113e-008
4.43942e-012
4.44424e-011
1.10761e-008
4.96644e-012
4.38326e-011
1.10413e-008
5.46435e-012
4.32464e-011
1.10066e-008
5.92454e-012
4.26482e-011
1.09722e-008
6.35312e-012
4.20664e-011
1.0938e-008
6.74108e-012
4.14674e-011
1.09041e-008
7.10088e-012
4.09113e-011
1.08703e-008
7.43114e-012
4.03773e-011
1.08368e-008
7.74228e-012
3.98961e-011
1.08034e-008
8.028e-012
3.94164e-011
1.07702e-008
8.29965e-012
3.89705e-011
1.07372e-008
8.55529e-012
3.8513e-011
1.07044e-008
8.80723e-012
3.8063e-011
1.06718e-008
9.0533e-012
3.7599e-011
1.06395e-008
9.30954e-012
3.71263e-011
1.06072e-008
9.58906e-012
3.68291e-011
1.05753e-008
9.8341e-012
3.58598e-011
1.05427e-008
1.02372e-011
3.65449e-011
1.05187e-008
9.9647e-012
2.58788e-011
1.13121e-011
4.3294e-011
4.50392e-008
1.75377e-010
3.15482e-009
4.1287e-008
4.97562e-010
3.9871e-009
3.76235e-008
7.03304e-010
3.932e-009
3.42076e-008
7.92584e-010
3.67504e-009
3.11211e-008
8.0717e-010
3.32989e-009
2.84237e-008
7.70636e-010
2.91332e-009
2.61263e-008
6.96575e-010
2.47731e-009
2.42022e-008
6.01395e-010
2.07017e-009
2.26115e-008
4.98435e-010
1.70909e-009
2.13135e-008
3.93447e-010
1.39371e-009
2.02689e-008
2.88021e-010
1.12176e-009
1.94383e-008
1.84082e-010
8.92903e-010
1.87835e-008
8.49772e-011
7.06421e-010
1.82693e-008
-5.50197e-012
5.59447e-010
1.7865e-008
-8.42395e-011
4.46788e-010
1.7545e-008
-1.49353e-010
3.62071e-010
1.72889e-008
-2.00408e-010
2.99046e-010
1.70808e-008
-2.3813e-010
2.5229e-010
1.69087e-008
-2.63978e-010
2.17505e-010
1.67636e-008
-2.79743e-010
1.91509e-010
1.66385e-008
-2.87277e-010
1.72048e-010
1.6528e-008
-2.88328e-010
1.57506e-010
1.64283e-008
-2.84465e-010
1.46655e-010
1.63363e-008
-2.77023e-010
1.38546e-010
1.62497e-008
-2.6713e-010
1.32421e-010
1.61672e-008
-2.55684e-010
1.27722e-010
1.60876e-008
-2.4342e-010
1.23981e-010
1.60104e-008
-2.30873e-010
1.20878e-010
1.5935e-008
-2.18467e-010
1.18143e-010
1.58613e-008
-2.06474e-010
1.15638e-010
1.57892e-008
-1.951e-010
1.13224e-010
1.57187e-008
-1.84418e-010
1.10846e-010
1.565e-008
-1.74482e-010
1.08436e-010
1.5583e-008
-1.65258e-010
1.06e-010
1.55178e-008
-1.56723e-010
1.03533e-010
1.54546e-008
-1.48801e-010
1.01087e-010
1.53933e-008
-1.41449e-010
9.86797e-011
1.53338e-008
-1.34593e-010
9.63429e-011
1.52762e-008
-1.282e-010
9.40829e-011
1.52203e-008
-1.22203e-010
9.19131e-011
1.5166e-008
-1.16574e-010
8.98178e-011
1.51133e-008
-1.11258e-010
8.77987e-011
1.5062e-008
-1.06232e-010
8.58447e-011
1.50121e-008
-1.01444e-010
8.39553e-011
1.49636e-008
-9.68745e-011
8.21218e-011
1.49162e-008
-9.24862e-011
8.03507e-011
1.487e-008
-8.82713e-011
7.86468e-011
1.48249e-008
-8.41994e-011
7.70126e-011
1.47808e-008
-8.02722e-011
7.54426e-011
1.47376e-008
-7.6472e-011
7.3936e-011
1.46953e-008
-7.28086e-011
7.25008e-011
1.46537e-008
-6.92673e-011
7.11388e-011
1.46129e-008
-6.58603e-011
6.98492e-011
1.45726e-008
-6.25757e-011
6.86247e-011
1.45328e-008
-5.94208e-011
6.74695e-011
1.44934e-008
-5.63726e-011
6.63702e-011
1.44544e-008
-5.34307e-011
6.53126e-011
1.44159e-008
-5.05735e-011
6.42741e-011
1.43777e-008
-4.78041e-011
6.32587e-011
1.43399e-008
-4.51077e-011
6.22624e-011
1.43025e-008
-4.24977e-011
6.12983e-011
1.42655e-008
-3.99722e-011
6.03706e-011
1.42287e-008
-3.75479e-011
5.95117e-011
1.41921e-008
-3.52191e-011
5.87224e-011
1.41556e-008
-3.29973e-011
5.80038e-011
1.41193e-008
-3.08761e-011
5.73283e-011
1.4083e-008
-2.88631e-011
5.66996e-011
1.40469e-008
-2.69496e-011
5.60969e-011
1.40108e-008
-2.51428e-011
5.55223e-011
1.39748e-008
-2.34372e-011
5.49615e-011
1.39388e-008
-2.18377e-011
5.4442e-011
1.39029e-008
-2.0336e-011
5.3955e-011
1.3867e-008
-1.89349e-011
5.35067e-011
1.38311e-008
-1.76258e-011
5.3075e-011
1.37952e-008
-1.64069e-011
5.2682e-011
1.37593e-008
-1.52662e-011
5.23097e-011
1.37234e-008
-1.42011e-011
5.19627e-011
1.36875e-008
-1.32015e-011
5.16164e-011
1.36517e-008
-1.22631e-011
5.12965e-011
1.36158e-008
-1.1376e-011
5.09867e-011
1.358e-008
-1.05397e-011
5.06947e-011
1.35442e-008
-9.75107e-012
5.03924e-011
1.35085e-008
-9.01278e-012
5.01031e-011
1.34729e-008
-8.32354e-012
4.98063e-011
1.34373e-008
-7.68789e-012
4.95145e-011
1.34019e-008
-7.10433e-012
4.92119e-011
1.33666e-008
-6.5714e-012
4.89447e-011
1.33313e-008
-6.08234e-012
4.87055e-011
1.32961e-008
-5.63454e-012
4.85071e-011
1.32609e-008
-5.22169e-012
4.83133e-011
1.32258e-008
-4.83776e-012
4.81418e-011
1.31907e-008
-4.47593e-012
4.79598e-011
1.31558e-008
-4.12945e-012
4.77744e-011
1.31209e-008
-3.80058e-012
4.75765e-011
1.30862e-008
-3.45643e-012
4.73822e-011
1.30515e-008
-3.12522e-012
4.73613e-011
1.3017e-008
-2.65758e-012
4.67431e-011
1.29815e-008
-2.2326e-012
4.77013e-011
1.29559e-008
-1.20648e-012
3.65321e-011
4.40137e-013
5.57066e-011
5.08425e-008
1.08333e-010
3.57584e-009
4.64918e-008
3.13961e-010
4.53258e-009
4.22519e-008
4.63853e-010
4.47802e-009
3.83175e-008
5.46049e-010
4.18067e-009
3.4776e-008
5.7228e-010
3.7772e-009
3.16989e-008
5.58685e-010
3.291e-009
2.91018e-008
5.16593e-010
2.77963e-009
2.69509e-008
4.55364e-010
2.29908e-009
2.51954e-008
3.82949e-010
1.87243e-009
2.37837e-008
3.04172e-010
1.50127e-009
2.26663e-008
2.21547e-010
1.1835e-009
2.17942e-008
1.3737e-010
9.17953e-010
2.11201e-008
5.48183e-011
7.03181e-010
2.06004e-008
-2.24428e-011
5.35566e-010
2.01977e-008
-9.14088e-011
4.0898e-010
1.9882e-008
-1.49934e-010
3.15756e-010
1.96304e-008
-1.97015e-010
2.48185e-010
1.94256e-008
-2.32664e-010
1.99661e-010
1.92551e-008
-2.57698e-010
1.64794e-010
1.91099e-008
-2.73425e-010
1.39731e-010
1.89834e-008
-2.81366e-010
1.21643e-010
1.88705e-008
-2.83057e-010
1.08627e-010
1.87678e-008
-2.79919e-010
9.92386e-011
1.86725e-008
-2.73209e-010
9.24674e-011
1.85826e-008
-2.64006e-010
8.75709e-011
1.84968e-008
-2.53207e-010
8.39827e-011
1.84141e-008
-2.41527e-010
8.12854e-011
1.83339e-008
-2.29527e-010
7.91367e-011
1.82558e-008
-2.17613e-010
7.7316e-011
1.81796e-008
-2.0609e-010
7.56388e-011
1.81053e-008
-1.95131e-010
7.40148e-011
1.80329e-008
-1.84847e-010
7.23544e-011
1.79624e-008
-1.75262e-010
7.06336e-011
1.7894e-008
-1.6638e-010
6.88361e-011
1.78277e-008
-1.5815e-010
6.69929e-011
1.77635e-008
-1.50534e-010
6.51335e-011
1.77016e-008
-1.4346e-010
6.32979e-011
1.76417e-008
-1.36891e-010
6.1519e-011
1.75838e-008
-1.30762e-010
5.98187e-011
1.75279e-008
-1.25036e-010
5.82064e-011
1.74738e-008
-1.19653e-010
5.66725e-011
1.74214e-008
-1.14584e-010
5.52142e-011
1.73707e-008
-1.09775e-010
5.38229e-011
1.73216e-008
-1.05202e-010
5.24969e-011
1.7274e-008
-1.0082e-010
5.12274e-011
1.72278e-008
-9.6618e-011
5.00186e-011
1.71829e-008
-9.25608e-011
4.88743e-011
1.71393e-008
-8.86452e-011
4.7792e-011
1.70969e-008
-8.48452e-011
4.6766e-011
1.70556e-008
-8.11692e-011
4.57899e-011
1.70154e-008
-7.75989e-011
4.48758e-011
1.69761e-008
-7.41459e-011
4.40178e-011
1.69377e-008
-7.07947e-011
4.3221e-011
1.69001e-008
-6.75576e-011
4.24698e-011
1.68631e-008
-6.44129e-011
4.17759e-011
1.68268e-008
-6.13623e-011
4.11161e-011
1.6791e-008
-5.83789e-011
4.0485e-011
1.67558e-008
-5.54663e-011
3.98508e-011
1.67211e-008
-5.26029e-011
3.92294e-011
1.6687e-008
-4.98006e-011
3.86062e-011
1.66534e-008
-4.70513e-011
3.80058e-011
1.66202e-008
-4.43781e-011
3.74208e-011
1.65873e-008
-4.17762e-011
3.68953e-011
1.65548e-008
-3.92636e-011
3.64166e-011
1.65225e-008
-3.68316e-011
3.59981e-011
1.64903e-008
-3.44939e-011
3.56027e-011
1.64583e-008
-3.22385e-011
3.52482e-011
1.64263e-008
-3.00769e-011
3.49018e-011
1.63945e-008
-2.80006e-011
3.45782e-011
1.63627e-008
-2.60233e-011
3.42526e-011
1.63309e-008
-2.41361e-011
3.39647e-011
1.6299e-008
-2.23495e-011
3.36948e-011
1.62672e-008
-2.06535e-011
3.34629e-011
1.62352e-008
-1.9055e-011
3.32385e-011
1.62032e-008
-1.754e-011
3.30551e-011
1.6171e-008
-1.61121e-011
3.28847e-011
1.61387e-008
-1.47573e-011
3.27451e-011
1.61063e-008
-1.34786e-011
3.26038e-011
1.60736e-008
-1.22613e-011
3.24985e-011
1.60408e-008
-1.111e-011
3.24019e-011
1.60079e-008
-1.0015e-011
3.23329e-011
1.59748e-008
-8.98399e-012
3.22517e-011
1.59415e-008
-8.00941e-012
3.21939e-011
1.59081e-008
-7.1019e-012
3.21263e-011
1.58745e-008
-6.25741e-012
3.20761e-011
1.58408e-008
-5.48509e-012
3.20156e-011
1.5807e-008
-4.77636e-012
3.20038e-011
1.57729e-008
-4.13651e-012
3.20179e-011
1.57387e-008
-3.55543e-012
3.20837e-011
1.57042e-008
-3.03399e-012
3.21541e-011
1.56696e-008
-2.55803e-012
3.2263e-011
1.56348e-008
-2.13072e-012
3.23659e-011
1.55998e-008
-1.74091e-012
3.24896e-011
1.55647e-008
-1.40326e-012
3.26081e-011
1.55294e-008
-1.07722e-012
3.27998e-011
1.54939e-008
-8.30763e-013
3.31398e-011
1.54582e-008
-4.33885e-013
3.32112e-011
1.54214e-008
-2.76098e-013
3.44621e-011
1.53952e-008
5.39951e-013
2.41102e-011
5.48529e-013
4.35237e-011
5.74113e-008
5.6931e-011
4.04781e-009
5.24307e-008
1.52746e-010
5.13982e-009
4.7565e-008
2.37341e-010
5.09079e-009
4.30486e-008
2.9535e-010
4.76685e-009
3.89801e-008
3.19238e-010
4.32268e-009
3.5442e-008
3.15319e-010
3.78382e-009
3.24577e-008
2.91978e-010
3.21148e-009
2.99934e-008
2.54506e-010
2.66728e-009
2.79924e-008
2.06506e-010
2.17848e-009
2.6396e-008
1.50954e-010
1.74928e-009
2.51468e-008
9.03282e-011
1.37939e-009
2.41867e-008
2.69147e-011
1.06899e-009
2.34592e-008
-3.66421e-011
8.17374e-010
2.29119e-008
-9.73245e-011
6.20918e-010
2.24993e-008
-1.52283e-010
4.72659e-010
2.21843e-008
-1.99369e-010
3.64103e-010
2.19387e-008
-2.37396e-010
2.86244e-010
2.17416e-008
-2.66096e-010
2.31206e-010
2.15783e-008
-2.8592e-010
1.92477e-010
2.14386e-008
-2.97816e-010
1.65237e-010
2.13154e-008
-3.0299e-010
1.46018e-010
2.12039e-008
-3.0272e-010
1.32415e-010
2.11005e-008
-2.98233e-010
1.22782e-010
2.10031e-008
-2.90634e-010
1.15905e-010
2.09099e-008
-2.80875e-010
1.10901e-010
2.08199e-008
-2.6975e-010
1.07136e-010
2.07325e-008
-2.57898e-010
1.04129e-010
2.06474e-008
-2.45816e-010
1.01589e-010
2.05644e-008
-2.33873e-010
9.92243e-011
2.04835e-008
-2.22328e-010
9.69609e-011
2.04047e-008
-2.11338e-010
9.46031e-011
2.0328e-008
-2.0099e-010
9.22068e-011
2.02538e-008
-1.91305e-010
8.9626e-011
2.0182e-008
-1.82279e-010
8.70012e-011
2.01127e-008
-1.7387e-010
8.42396e-011
2.0046e-008
-1.66033e-010
8.15184e-011
1.99818e-008
-1.58714e-010
7.87563e-011
1.992e-008
-1.51872e-010
7.6119e-011
1.98606e-008
-1.45453e-010
7.35169e-011
1.98034e-008
-1.39416e-010
7.10751e-011
1.97482e-008
-1.33711e-010
6.86874e-011
1.96951e-008
-1.28306e-010
6.64575e-011
1.96438e-008
-1.23158e-010
6.42872e-011
1.95942e-008
-1.18238e-010
6.22658e-011
1.95462e-008
-1.13512e-010
6.02973e-011
1.94998e-008
-1.08963e-010
5.84702e-011
1.94548e-008
-1.04568e-010
5.67e-011
1.94111e-008
-1.00315e-010
5.50701e-011
1.93687e-008
-9.61872e-011
5.34858e-011
1.93275e-008
-9.2185e-011
5.20286e-011
1.92874e-008
-8.8296e-011
5.06175e-011
1.92482e-008
-8.45242e-011
4.93376e-011
1.921e-008
-8.08606e-011
4.8101e-011
1.91725e-008
-7.73088e-011
4.69858e-011
1.91358e-008
-7.38521e-011
4.59094e-011
1.90998e-008
-7.04855e-011
4.4939e-011
1.90643e-008
-6.71892e-011
4.39767e-011
1.90295e-008
-6.39612e-011
4.3083e-011
1.89952e-008
-6.07865e-011
4.21842e-011
1.89614e-008
-5.76717e-011
4.13526e-011
1.89282e-008
-5.46144e-011
4.05233e-011
1.88955e-008
-5.1631e-011
3.97695e-011
1.88632e-008
-4.87208e-011
3.90479e-011
1.88312e-008
-4.58964e-011
3.84203e-011
1.87994e-008
-4.31526e-011
3.78223e-011
1.87679e-008
-4.04977e-011
3.72914e-011
1.87366e-008
-3.79226e-011
3.67763e-011
1.87054e-008
-3.54347e-011
3.63113e-011
1.86744e-008
-3.30284e-011
3.58461e-011
1.86434e-008
-3.07138e-011
3.54172e-011
1.86126e-008
-2.84855e-011
3.50016e-011
1.85817e-008
-2.63525e-011
3.46337e-011
1.85509e-008
-2.43077e-011
3.42777e-011
1.852e-008
-2.2356e-011
3.39584e-011
1.84891e-008
-2.04862e-011
3.36569e-011
1.8458e-008
-1.87018e-011
3.33945e-011
1.84269e-008
-1.69925e-011
3.3143e-011
1.83957e-008
-1.53607e-011
3.29199e-011
1.83643e-008
-1.37954e-011
3.27175e-011
1.83327e-008
-1.23005e-011
3.25498e-011
1.8301e-008
-1.08694e-011
3.23915e-011
1.8269e-008
-9.51003e-012
3.22483e-011
1.8237e-008
-8.2177e-012
3.21139e-011
1.82047e-008
-7.00203e-012
3.19967e-011
1.81723e-008
-5.86024e-012
3.18845e-011
1.81396e-008
-4.80212e-012
3.17914e-011
1.81068e-008
-3.82356e-012
3.17308e-011
1.80737e-008
-2.93053e-012
3.17138e-011
1.80403e-008
-2.11268e-012
3.17279e-011
1.80067e-008
-1.37182e-012
3.17699e-011
1.79728e-008
-6.99244e-013
3.18402e-011
1.79386e-008
-1.0337e-013
3.19341e-011
1.79042e-008
4.20941e-013
3.2054e-011
1.78695e-008
8.52307e-013
3.21999e-011
1.78346e-008
1.21211e-012
3.24808e-011
1.77992e-008
1.41968e-012
3.28764e-011
1.77634e-008
1.62154e-012
3.34481e-011
1.77266e-008
1.56528e-012
3.45449e-011
1.76998e-008
1.60827e-012
2.52976e-011
1.57066e-012
4.40518e-011
6.4836e-008
2.25854e-011
4.57858e-009
5.91711e-008
6.37035e-012
5.8091e-009
5.36318e-008
3.7031e-011
5.73809e-009
4.85104e-008
6.8258e-011
5.34826e-009
4.39217e-008
8.35648e-011
4.82565e-009
3.99481e-008
8.68302e-011
4.20441e-009
3.6607e-008
8.33618e-011
3.5522e-009
3.38544e-008
7.37615e-011
2.93486e-009
3.16239e-008
5.67819e-011
2.38054e-009
2.9849e-008
3.20419e-011
1.8929e-009
2.8466e-008
1.54077e-013
1.47139e-009
2.74114e-008
-3.73989e-011
1.11705e-009
2.66213e-008
-7.83429e-011
8.30128e-010
2.60356e-008
-1.20009e-010
6.07514e-010
2.56012e-008
-1.59664e-010
4.41439e-010
2.52751e-008
-1.95008e-010
3.22233e-010
2.5024e-008
-2.24454e-010
2.39152e-010
2.48236e-008
-2.47223e-010
1.82827e-010
2.46571e-008
-2.63247e-010
1.45391e-010
2.45128e-008
-2.73017e-010
1.21022e-010
2.4383e-008
-2.77417e-010
1.05616e-010
2.42627e-008
-2.77424e-010
9.62366e-011
2.41486e-008
-2.74011e-010
9.09499e-011
2.40386e-008
-2.68043e-010
8.82735e-011
2.39313e-008
-2.60314e-010
8.72571e-011
2.38262e-008
-2.51464e-010
8.72084e-011
2.37228e-008
-2.42037e-010
8.76003e-011
2.36212e-008
-2.32424e-010
8.81754e-011
2.35214e-008
-2.22941e-010
8.8581e-011
2.34236e-008
-2.1377e-010
8.88436e-011
2.3328e-008
-2.05046e-010
8.86882e-011
2.3235e-008
-1.96802e-010
8.83026e-011
2.31446e-008
-1.89062e-010
8.74564e-011
2.3057e-008
-1.8179e-010
8.64274e-011
2.29724e-008
-1.74964e-010
8.50358e-011
2.28908e-008
-1.6852e-010
8.35811e-011
2.2812e-008
-1.6243e-010
8.1896e-011
2.27361e-008
-1.56641e-010
8.02482e-011
2.26628e-008
-1.51128e-010
7.84793e-011
2.25921e-008
-1.45841e-010
7.68054e-011
2.25237e-008