/*--------------------------------*- C++ -*----------------------------------*\
| =========                 |                                                 |
| \\      /  F ield         | OpenFOAM: The Open Source CFD Toolbox           |
|  \\    /   O peration     | Version:  5.x                                   |
|   \\  /    A nd           | Web:      www.OpenFOAM.org                      |
|    \\/     M anipulation  |                                                 |
\*---------------------------------------------------------------------------*/
/*   Windows 32 and 64 bit porting by blueCAPE: http://www.bluecape.com.pt   *\
|  Based on Windows porting (2.0.x v4) by Symscape: http://www.symscape.com   |
\*---------------------------------------------------------------------------*/
FoamFile
{
    version     2.0;
    format      ascii;
    class       surfaceScalarField;
    location    "63";
    object      phi;
}
// * * * * * * * * * * * * * * * * * * * * * * * * * * * * * * * * * * * * * //

dimensions      [0 3 -1 0 0 0 0];

internalField   nonuniform List<scalar> 
27900
(
2.58749e-008
1.82352e-009
1.82352e-009
2.13738e-008
2.25055e-009
2.25055e-009
1.71646e-008
2.1046e-009
2.1046e-009
1.36186e-008
1.77299e-009
1.77299e-009
1.08769e-008
1.37086e-009
1.37086e-009
8.89616e-009
9.90372e-010
9.90367e-010
7.50503e-009
6.95563e-010
6.95558e-010
6.5104e-009
4.97312e-010
4.97312e-010
5.76327e-009
3.7356e-010
3.73564e-010
5.17189e-009
2.9569e-010
2.95694e-010
4.68913e-009
2.41377e-010
2.41379e-010
4.2938e-009
1.97669e-010
1.97668e-010
3.97488e-009
1.59459e-010
1.59458e-010
3.72294e-009
1.2597e-010
1.25971e-010
3.52773e-009
9.76033e-011
9.76058e-011
3.37877e-009
7.44832e-011
7.44861e-011
3.26619e-009
5.62876e-011
5.62889e-011
3.18141e-009
4.23945e-011
4.23931e-011
3.11733e-009
3.20464e-011
3.20421e-011
3.06832e-009
2.45082e-011
2.45022e-011
3.03009e-009
1.91192e-011
1.91134e-011
2.99942e-009
1.53415e-011
1.53378e-011
2.97393e-009
1.27516e-011
1.27511e-011
2.95189e-009
1.10222e-011
1.10252e-011
2.93208e-009
9.90302e-012
9.90882e-012
2.91366e-009
9.20659e-012
9.2137e-012
2.89607e-009
8.79421e-012
8.80092e-012
2.87894e-009
8.56537e-012
8.57021e-012
2.86205e-009
8.44903e-012
8.45109e-012
2.84526e-009
8.39596e-012
8.39507e-012
2.82852e-009
8.37359e-012
8.37019e-012
2.81181e-009
8.36033e-012
8.35533e-012
2.79513e-009
8.34299e-012
8.33745e-012
2.77851e-009
8.31525e-012
8.31023e-012
2.76197e-009
8.27376e-012
8.27011e-012
2.74554e-009
8.2161e-012
8.21437e-012
2.72926e-009
8.14269e-012
8.14303e-012
2.71315e-009
8.05561e-012
8.05782e-012
2.69724e-009
7.95696e-012
7.96055e-012
2.68154e-009
7.84943e-012
7.85379e-012
2.66607e-009
7.73522e-012
7.73973e-012
2.65083e-009
7.61613e-012
7.62023e-012
2.63584e-009
7.49353e-012
7.4968e-012
2.6211e-009
7.36853e-012
7.37069e-012
2.60662e-009
7.24202e-012
7.24296e-012
2.59239e-009
7.11464e-012
7.11442e-012
2.57842e-009
6.98701e-012
6.98582e-012
2.5647e-009
6.85963e-012
6.85772e-012
2.55124e-009
6.73297e-012
6.73059e-012
2.53802e-009
6.60739e-012
6.60479e-012
2.52506e-009
6.48317e-012
6.48057e-012
2.51234e-009
6.36062e-012
6.35819e-012
2.49986e-009
6.23996e-012
6.2378e-012
2.48762e-009
6.12146e-012
6.1196e-012
2.47561e-009
6.0052e-012
6.00364e-012
2.46383e-009
5.89133e-012
5.89005e-012
2.45227e-009
5.77987e-012
5.77884e-012
2.44093e-009
5.67095e-012
5.67013e-012
2.4298e-009
5.56448e-012
5.56384e-012
2.41888e-009
5.46053e-012
5.46004e-012
2.40816e-009
5.35917e-012
5.35881e-012
2.39764e-009
5.2604e-012
5.26016e-012
2.38731e-009
5.16407e-012
5.16396e-012
2.37717e-009
5.07012e-012
5.07014e-012
2.36722e-009
4.97847e-012
4.97861e-012
2.35744e-009
4.88905e-012
4.88932e-012
2.34783e-009
4.80179e-012
4.80219e-012
2.3384e-009
4.71671e-012
4.7172e-012
2.32913e-009
4.63375e-012
4.63432e-012
2.32002e-009
4.55292e-012
4.55351e-012
2.31108e-009
4.47411e-012
4.47469e-012
2.30228e-009
4.39729e-012
4.39782e-012
2.29364e-009
4.32237e-012
4.32282e-012
2.28514e-009
4.24932e-012
4.24966e-012
2.27678e-009
4.17804e-012
4.17828e-012
2.26856e-009
4.10847e-012
4.10861e-012
2.26048e-009
4.04054e-012
4.04058e-012
2.25253e-009
3.9742e-012
3.97417e-012
2.24472e-009
3.90938e-012
3.90928e-012
2.23702e-009
3.84603e-012
3.84588e-012
2.22946e-009
3.78404e-012
3.78385e-012
2.22201e-009
3.72338e-012
3.72317e-012
2.21468e-009
3.66394e-012
3.66373e-012
2.20747e-009
3.60566e-012
3.60546e-012
2.20038e-009
3.54844e-012
3.54826e-012
2.19339e-009
3.49224e-012
3.4921e-012
2.18652e-009
3.43699e-012
3.43688e-012
2.17975e-009
3.38269e-012
3.38263e-012
2.1731e-009
3.32937e-012
3.32936e-012
2.16654e-009
3.27728e-012
3.27734e-012
2.16009e-009
3.22652e-012
3.22663e-012
2.15373e-009
3.17844e-012
3.17861e-012
2.14747e-009
3.13119e-012
3.13141e-012
2.14128e-009
3.09478e-012
3.09504e-012
2.1352e-009
3.03992e-012
3.04024e-012
2.12909e-009
3.05854e-012
3.0589e-012
2.12342e-009
2.83598e-012
2.8364e-012
2.11703e-009
3.1934e-012
3.19389e-012
2.1142e-009
1.41774e-012
1.41818e-012
3.83013e-012
3.83045e-012
3.23627e-008
6.63364e-010
2.15223e-009
3.03058e-008
1.51617e-009
2.79132e-009
2.78022e-008
1.76656e-009
2.84156e-009
2.50755e-008
1.80702e-009
2.69273e-009
2.23346e-008
1.68561e-009
2.42609e-009
1.97835e-008
1.43802e-009
2.10353e-009
1.75395e-008
1.15382e-009
1.78573e-009
1.56348e-008
8.98279e-010
1.50373e-009
1.40528e-008
6.91229e-010
1.26429e-009
1.27556e-008
5.28901e-010
1.064e-009
1.16987e-008
4.01574e-010
8.96694e-010
1.08399e-008
3.00082e-010
7.56359e-010
1.01432e-008
2.17868e-010
6.38323e-010
9.57882e-009
1.51125e-010
5.39219e-010
9.12232e-009
9.76858e-011
4.56425e-010
8.75321e-009
5.59614e-011
3.87637e-010
8.45427e-009
2.45103e-011
3.30722e-010
8.2111e-009
1.83261e-012
2.83736e-010
8.01191e-009
-1.36888e-011
2.44935e-010
7.84721e-009
-2.36002e-011
2.12809e-010
7.70944e-009
-2.91956e-011
1.86095e-010
7.59257e-009
-3.15431e-011
1.63761e-010
7.49187e-009
-3.15182e-011
1.44972e-010
7.40367e-009
-2.98276e-011
1.29064e-010
7.3251e-009
-2.70328e-011
1.15513e-010
7.25399e-009
-2.357e-011
1.03905e-010
7.18865e-009
-1.97718e-011
9.39112e-011
7.12784e-009
-1.58838e-011
8.52699e-011
7.07061e-009
-1.20809e-011
7.77698e-011
7.01625e-009
-8.48059e-012
7.12381e-011
6.96425e-009
-5.1558e-012
6.55327e-011
6.91423e-009
-2.14503e-012
6.05345e-011
6.86589e-009
5.40762e-013
5.61446e-011
6.81903e-009
2.89998e-012
5.22777e-011
6.77351e-009
4.93904e-012
4.8859e-011
6.72922e-009
6.67918e-012
4.58259e-011
6.6861e-009
8.14877e-012
4.31258e-011
6.64407e-009
9.37767e-012
4.07134e-011
6.60309e-009
1.03948e-011
3.85494e-011
6.56311e-009
1.12287e-011
3.66011e-011
6.52411e-009
1.19047e-011
3.48404e-011
6.48604e-009
1.24456e-011
3.32432e-011
6.44888e-009
1.28711e-011
3.17887e-011
6.4126e-009
1.31985e-011
3.04587e-011
6.37716e-009
1.34427e-011
2.92377e-011
6.34255e-009
1.36166e-011
2.81123e-011
6.30873e-009
1.37312e-011
2.70711e-011
6.27569e-009
1.37961e-011
2.61042e-011
6.2434e-009
1.38194e-011
2.52033e-011
6.21183e-009
1.38081e-011
2.43611e-011
6.18097e-009
1.37679e-011
2.35714e-011
6.1508e-009
1.37039e-011
2.28289e-011
6.12129e-009
1.36202e-011
2.2129e-011
6.09242e-009
1.35207e-011
2.14678e-011
6.06418e-009
1.34082e-011
2.08418e-011
6.03654e-009
1.32854e-011
2.0248e-011
6.00948e-009
1.31543e-011
1.96837e-011
5.98298e-009
1.30169e-011
1.91466e-011
5.95704e-009
1.28744e-011
1.86348e-011
5.93163e-009
1.27281e-011
1.81466e-011
5.90673e-009
1.25794e-011
1.76801e-011
5.88232e-009
1.24291e-011
1.7234e-011
5.8584e-009
1.22777e-011
1.68068e-011
5.83495e-009
1.21257e-011
1.63974e-011
5.81195e-009
1.19734e-011
1.60046e-011
5.78939e-009
1.18214e-011
1.56274e-011
5.76726e-009
1.16699e-011
1.52649e-011
5.74554e-009
1.15194e-011
1.49161e-011
5.72422e-009
1.137e-011
1.45804e-011
5.70329e-009
1.12221e-011
1.42572e-011
5.68275e-009
1.10757e-011
1.39457e-011
5.66257e-009
1.0931e-011
1.36454e-011
5.64275e-009
1.0788e-011
1.33557e-011
5.62327e-009
1.06468e-011
1.3076e-011
5.60414e-009
1.05074e-011
1.28059e-011
5.58533e-009
1.03698e-011
1.25448e-011
5.56685e-009
1.02339e-011
1.22924e-011
5.54867e-009
1.00999e-011
1.20482e-011
5.5308e-009
9.96758e-012
1.18118e-011
5.51323e-009
9.837e-012
1.15828e-011
5.49595e-009
9.70802e-012
1.13609e-011
5.47894e-009
9.58059e-012
1.11457e-011
5.46222e-009
9.45454e-012
1.09369e-011
5.44576e-009
9.32978e-012
1.07342e-011
5.42956e-009
9.2061e-012
1.05372e-011
5.41363e-009
9.08344e-012
1.03456e-011
5.39795e-009
8.96167e-012
1.01593e-011
5.38251e-009
8.84084e-012
9.97794e-012
5.36732e-009
8.72111e-012
9.80136e-012
5.35236e-009
8.60307e-012
9.62964e-012
5.33764e-009
8.48763e-012
9.46255e-012
5.32314e-009
8.37675e-012
9.30161e-012
5.30886e-009
8.27183e-012
9.14372e-012
5.29477e-009
8.18105e-012
9.00313e-012
5.28089e-009
8.08867e-012
8.83691e-012
5.2671e-009
8.06057e-012
8.78626e-012
5.25375e-009
7.82864e-012
8.36429e-012
5.23994e-009
8.09829e-012
8.90687e-012
5.22956e-009
6.18956e-012
5.60527e-012
8.39719e-012
1.02606e-011
3.55149e-008
3.83523e-010
2.45026e-009
3.2927e-008
1.03805e-009
3.06603e-009
3.04078e-008
1.27909e-009
3.00665e-009
2.80403e-008
1.35244e-009
2.82205e-009
2.58021e-008
1.34032e-009
2.58347e-009
2.36997e-008
1.23787e-009
2.30252e-009
2.17646e-008
1.0767e-009
2.01224e-009
2.00259e-008
9.00148e-010
1.73679e-009
1.85003e-008
7.30814e-010
1.48605e-009
1.719e-008
5.75236e-010
1.26394e-009
1.60847e-008
4.35104e-010
1.07181e-009
1.51648e-008
3.11097e-010
9.08832e-010
1.44065e-008
2.03456e-010
7.72709e-010
1.37849e-008
1.12242e-010
6.60504e-010
1.32761e-008
3.74136e-011
5.69085e-010
1.28584e-008
-2.16297e-011
4.9529e-010
1.25134e-008
-6.64598e-011
4.35964e-010
1.22262e-008
-9.91128e-011
3.88191e-010
1.19845e-008
-1.21491e-010
3.49526e-010
1.17784e-008
-1.35416e-010
3.17932e-010
1.16e-008
-1.42596e-010
2.91761e-010
1.14433e-008
-1.44561e-010
2.69717e-010
1.13036e-008
-1.4262e-010
2.50811e-010
1.11773e-008
-1.37866e-010
2.34306e-010
1.10618e-008
-1.31188e-010
2.19662e-010
1.09551e-008
-1.23296e-010
2.0649e-010
1.08556e-008
-1.14741e-010
1.94514e-010
1.07621e-008
-1.05939e-010
1.83535e-010
1.06738e-008
-9.71972e-011
1.73413e-010
1.059e-008
-8.87283e-011
1.64042e-010
1.05102e-008
-8.06737e-011
1.55345e-010
1.04339e-008
-7.31193e-011
1.47257e-010
1.03608e-008
-6.61097e-011
1.39727e-010
1.02907e-008
-5.96574e-011
1.32709e-010
1.02232e-008
-5.37541e-011
1.26166e-010
1.01582e-008
-4.83776e-011
1.20061e-010
1.00955e-008
-4.34953e-011
1.14362e-010
1.00349e-008
-3.90703e-011
1.09038e-010
9.97631e-009
-3.50633e-011
1.0406e-010
9.91958e-009
-3.14338e-011
9.94021e-011
9.86459e-009
-2.81438e-011
9.5041e-011
9.81125e-009
-2.51584e-011
9.0953e-011
9.75946e-009
-2.24457e-011
8.71164e-011
9.70913e-009
-1.99771e-011
8.35117e-011
9.66018e-009
-1.77272e-011
8.01207e-011
9.61254e-009
-1.56731e-011
7.69272e-011
9.56615e-009
-1.37949e-011
7.39159e-011
9.52095e-009
-1.20745e-011
7.10733e-011
9.47688e-009
-1.04962e-011
6.8387e-011
9.43388e-009
-9.04594e-012
6.58456e-011
9.39192e-009
-7.71148e-012
6.34388e-011
9.35095e-009
-6.48185e-012
6.11573e-011
9.31092e-009
-5.34733e-012
5.89925e-011
9.2718e-009
-4.29927e-012
5.69367e-011
9.23356e-009
-3.33001e-012
5.49828e-011
9.19615e-009
-2.43274e-012
5.31243e-011
9.15955e-009
-1.60134e-012
5.13551e-011
9.12373e-009
-8.30309e-013
4.96702e-011
9.08865e-009
-1.14074e-013
4.80645e-011
9.05429e-009
5.51635e-013
4.65336e-011
9.02063e-009
1.16956e-012
4.50727e-011
8.98764e-009
1.74277e-012
4.36781e-011
8.9553e-009
2.27457e-012
4.23459e-011
8.92358e-009
2.76803e-012
4.10727e-011
8.89247e-009
3.22591e-012
3.98553e-011
8.86195e-009
3.65062e-012
3.86907e-011
8.832e-009
4.04443e-012
3.75761e-011
8.8026e-009
4.40953e-012
3.65091e-011
8.77374e-009
4.74787e-012
3.54871e-011
8.74539e-009
5.06118e-012
3.4508e-011
8.71755e-009
5.35105e-012
3.35694e-011
8.69019e-009
5.61893e-012
3.26692e-011
8.66331e-009
5.86617e-012
3.18055e-011
8.63688e-009
6.09402e-012
3.09765e-011
8.61091e-009
6.30364e-012
3.01803e-011
8.58536e-009
6.4961e-012
2.94155e-011
8.56025e-009
6.67239e-012
2.86803e-011
8.53554e-009
6.83344e-012
2.79735e-011
8.51123e-009
6.98009e-012
2.72935e-011
8.48732e-009
7.1131e-012
2.66391e-011
8.46378e-009
7.23313e-012
2.60089e-011
8.44062e-009
7.34078e-012
2.5402e-011
8.41782e-009
7.43656e-012
2.48171e-011
8.39538e-009
7.52089e-012
2.42531e-011
8.37328e-009
7.59416e-012
2.3709e-011
8.35153e-009
7.65672e-012
2.3184e-011
8.3301e-009
7.70898e-012
2.26771e-011
8.30901e-009
7.75142e-012
2.21875e-011
8.28823e-009
7.78481e-012
2.17145e-011
8.26777e-009
7.8103e-012
2.12578e-011
8.24761e-009
7.82997e-012
2.08169e-011
8.22775e-009
7.84647e-012
2.03932e-011
8.20817e-009
7.86538e-012
1.99839e-011
8.18886e-009
7.89136e-012
1.96041e-011
8.16981e-009
7.93451e-012
1.92087e-011
8.1509e-009
8.00519e-012
1.89594e-011
8.13244e-009
8.05006e-012
1.82442e-011
8.11349e-009
8.26146e-012
1.87924e-011
8.09834e-009
7.69397e-012
1.36452e-011
8.86792e-012
2.11878e-011
3.99181e-008
2.63556e-010
2.77985e-009
3.67264e-008
7.32677e-010
3.49708e-009
3.36027e-008
9.70373e-010
3.43247e-009
3.06905e-008
1.04922e-009
3.21539e-009
2.80551e-008
1.04886e-009
2.92684e-009
2.57283e-008
9.85966e-010
2.57873e-009
2.37112e-008
8.7674e-010
2.21704e-009
2.19855e-008
7.47558e-010
1.87824e-009
2.0525e-008
6.15395e-010
1.57594e-009
1.93015e-008
4.85829e-010
1.31293e-009
1.82868e-008
3.60999e-010
1.08879e-009
1.74532e-008
2.43413e-010
9.01275e-010
1.67739e-008
1.35857e-010
7.46838e-010
1.62239e-008
4.08357e-011
6.21456e-010
1.57801e-008
-3.98151e-011
5.21024e-010
1.54225e-008
-1.05476e-010
4.41521e-010
1.51332e-008
-1.56428e-010
3.79252e-010
1.48969e-008
-1.9374e-010
3.30947e-010
1.47008e-008
-2.19075e-010
2.93709e-010
1.45346e-008
-2.34342e-010
2.65042e-010
1.43906e-008
-2.41464e-010
2.42876e-010
1.42627e-008
-2.42236e-010
2.25539e-010
1.41466e-008
-2.38246e-010
2.11728e-010
1.40392e-008
-2.30838e-010
2.00454e-010
1.39381e-008
-2.21114e-010
1.90982e-010
1.3842e-008
-2.0995e-010
1.82785e-010
1.37498e-008
-1.98026e-010
1.7549e-010
1.36609e-008
-1.85856e-010
1.68842e-010
1.35749e-008
-1.73813e-010
1.62678e-010
1.34914e-008
-1.62155e-010
1.56889e-010
1.34104e-008
-1.51049e-010
1.51409e-010
1.33317e-008
-1.40596e-010
1.46193e-010
1.32552e-008
-1.30845e-010
1.41216e-010
1.31809e-008
-1.21809e-010
1.3646e-010
1.31087e-008
-1.13476e-010
1.31916e-010
1.30385e-008
-1.05814e-010
1.27573e-010
1.29704e-008
-9.87829e-011
1.23426e-010
1.29042e-008
-9.23327e-011
1.19459e-010
1.28399e-008
-8.64117e-011
1.15667e-010
1.27774e-008
-8.09749e-011
1.12051e-010
1.27166e-008
-7.59784e-011
1.08605e-010
1.26575e-008
-7.13802e-011
1.05321e-010
1.26001e-008
-6.71409e-011
1.02189e-010
1.25441e-008
-6.32245e-011
9.91998e-011
1.24897e-008
-5.95984e-011
9.63433e-011
1.24366e-008
-5.62335e-011
9.36116e-011
1.23849e-008
-5.31036e-011
9.09965e-011
1.23345e-008
-5.01855e-011
8.84907e-011
1.22854e-008
-4.74588e-011
8.60873e-011
1.22375e-008
-4.49055e-011
8.37797e-011
1.21907e-008
-4.25096e-011
8.15619e-011
1.21451e-008
-4.02573e-011
7.94284e-011
1.21005e-008
-3.81359e-011
7.73742e-011
1.20569e-008
-3.61347e-011
7.53946e-011
1.20143e-008
-3.42438e-011
7.34855e-011
1.19727e-008
-3.24547e-011
7.1643e-011
1.1932e-008
-3.07594e-011
6.98635e-011
1.18922e-008
-2.91513e-011
6.81441e-011
1.18532e-008
-2.76243e-011
6.64814e-011
1.18151e-008
-2.61729e-011
6.48728e-011
1.17777e-008
-2.47919e-011
6.33161e-011
1.17411e-008
-2.34769e-011
6.18093e-011
1.17053e-008
-2.22241e-011
6.03503e-011
1.16701e-008
-2.10299e-011
5.8937e-011
1.16357e-008
-1.98907e-011
5.75673e-011
1.16019e-008
-1.8803e-011
5.6239e-011
1.15688e-008
-1.77641e-011
5.49508e-011
1.15362e-008
-1.67717e-011
5.37019e-011
1.15043e-008
-1.58236e-011
5.2491e-011
1.1473e-008
-1.49178e-011
5.13168e-011
1.14422e-008
-1.40523e-011
5.01778e-011
1.1412e-008
-1.32254e-011
4.90726e-011
1.13823e-008
-1.24351e-011
4.8e-011
1.13531e-008
-1.16799e-011
4.69589e-011
1.13244e-008
-1.0958e-011
4.59482e-011
1.12962e-008
-1.02681e-011
4.49666e-011
1.12685e-008
-9.6088e-012
4.40133e-011
1.12412e-008
-8.97875e-012
4.30872e-011
1.12144e-008
-8.37675e-012
4.21874e-011
1.1188e-008
-7.80178e-012
4.1313e-011
1.1162e-008
-7.25282e-012
4.04631e-011
1.11364e-008
-6.72906e-012
3.96369e-011
1.11113e-008
-6.2297e-012
3.88336e-011
1.10865e-008
-5.75416e-012
3.80523e-011
1.10621e-008
-5.30182e-012
3.72923e-011
1.10381e-008
-4.87222e-012
3.65531e-011
1.10144e-008
-4.46479e-012
3.58338e-011
1.09911e-008
-4.079e-012
3.51341e-011
1.09681e-008
-3.7139e-012
3.44535e-011
1.09455e-008
-3.36833e-012
3.37924e-011
1.09233e-008
-3.03978e-012
3.3151e-011
1.09013e-008
-2.72569e-012
3.25315e-011
1.08796e-008
-2.41764e-012
3.19342e-011
1.08583e-008
-2.11478e-012
3.13744e-011
1.08372e-008
-1.78199e-012
3.08198e-011
1.08162e-008
-1.45859e-012
3.04201e-011
1.07957e-008
-9.68573e-013
2.95852e-011
1.07745e-008
-6.00265e-013
3.00449e-011
1.07575e-008
3.68288e-013
2.43258e-011
1.30727e-012
3.31583e-011
4.50401e-008
1.74892e-010
3.15448e-009
4.12869e-008
4.97008e-010
3.98891e-009
3.76303e-008
7.03041e-010
3.92396e-009
3.42181e-008
7.93003e-010
3.6684e-009
3.11316e-008
8.09566e-010
3.32578e-009
2.84306e-008
7.75478e-010
2.91144e-009
2.6128e-008
7.02538e-010
2.47678e-009
2.42025e-008
6.06749e-010
2.0663e-009
2.2617e-008
5.01831e-010
1.69913e-009
2.13279e-008
3.94409e-010
1.38045e-009
2.02908e-008
2.87428e-010
1.11072e-009
1.94629e-008
1.8362e-010
8.87675e-010
1.88057e-008
8.606e-011
7.06898e-010
1.82861e-008
-2.38339e-012
5.6285e-010
1.78758e-008
-7.94153e-011
4.49903e-010
1.75513e-008
-1.43556e-010
3.62666e-010
1.72929e-008
-1.94338e-010
2.96364e-010
1.70846e-008
-2.32263e-010
2.46792e-010
1.69138e-008
-2.58526e-010
2.1032e-010
1.67702e-008
-2.74722e-010
1.83895e-010
1.66463e-008
-2.82599e-010
1.65001e-010
1.65363e-008
-2.83881e-010
1.51618e-010
1.64361e-008
-2.80149e-010
1.42164e-010
1.63426e-008
-2.72773e-010
1.35431e-010
1.62538e-008
-2.62893e-010
1.30526e-010
1.61685e-008
-2.51431e-010
1.26805e-010
1.60858e-008
-2.39109e-010
1.23814e-010
1.60053e-008
-2.2647e-010
1.21239e-010
1.59265e-008
-2.1391e-010
1.18876e-010
1.58495e-008
-2.01708e-010
1.16615e-010
1.57741e-008
-1.90049e-010
1.1439e-010
1.57003e-008
-1.7904e-010
1.12169e-010
1.56283e-008
-1.68739e-010
1.09936e-010
1.55579e-008
-1.59158e-010
1.0769e-010
1.54893e-008
-1.50287e-010
1.05437e-010
1.54224e-008
-1.42094e-010
1.03184e-010
1.53572e-008
-1.34537e-010
1.00941e-010
1.52937e-008
-1.27568e-010
9.87266e-011
1.52319e-008
-1.2114e-010
9.65497e-011
1.51717e-008
-1.152e-010
9.4408e-011
1.51131e-008
-1.09703e-010
9.23056e-011
1.50561e-008
-1.04604e-010
9.02481e-011
1.50006e-008
-9.9863e-011
8.82404e-011
1.49466e-008
-9.54439e-011
8.62862e-011
1.48939e-008
-9.13147e-011
8.43875e-011
1.48426e-008
-8.74468e-011
8.25457e-011
1.47925e-008
-8.38151e-011
8.0761e-011
1.47437e-008
-8.03971e-011
7.90329e-011
1.46961e-008
-7.71734e-011
7.736e-011
1.46495e-008
-7.41269e-011
7.57408e-011
1.46041e-008
-7.12424e-011
7.4173e-011
1.45597e-008
-6.85065e-011
7.26546e-011
1.45163e-008
-6.59075e-011
7.11837e-011
1.44738e-008
-6.3435e-011
6.97579e-011
1.44323e-008
-6.10796e-011
6.83755e-011
1.43916e-008
-5.88331e-011
6.70343e-011
1.43518e-008
-5.66881e-011
6.57328e-011
1.43128e-008
-5.46378e-011
6.44693e-011
1.42746e-008
-5.26764e-011
6.32421e-011
1.42372e-008
-5.07983e-011
6.20499e-011
1.42005e-008
-4.89988e-011
6.08913e-011
1.41646e-008
-4.72732e-011
5.97651e-011
1.41293e-008
-4.56176e-011
5.86703e-011
1.40947e-008
-4.40282e-011
5.76055e-011
1.40607e-008
-4.25016e-011
5.65701e-011
1.40274e-008
-4.10348e-011
5.55638e-011
1.39947e-008
-3.96249e-011
5.45849e-011
1.39625e-008
-3.82692e-011
5.36318e-011
1.3931e-008
-3.6965e-011
5.2703e-011
1.39e-008
-3.57101e-011
5.17978e-011
1.38695e-008
-3.45022e-011
5.09153e-011
1.38396e-008
-3.33394e-011
5.00548e-011
1.38101e-008
-3.22196e-011
4.92155e-011
1.37812e-008
-3.11411e-011
4.83968e-011
1.37527e-008
-3.01022e-011
4.7598e-011
1.37247e-008
-2.91013e-011
4.68184e-011
1.36972e-008
-2.8137e-011
4.60573e-011
1.36701e-008
-2.72078e-011
4.53142e-011
1.36435e-008
-2.63126e-011
4.45884e-011
1.36173e-008
-2.54502e-011
4.38794e-011
1.35914e-008
-2.46196e-011
4.31866e-011
1.3566e-008
-2.382e-011
4.25095e-011
1.3541e-008
-2.30505e-011
4.18476e-011
1.35163e-008
-2.23105e-011
4.12003e-011
1.34921e-008
-2.15996e-011
4.05672e-011
1.34682e-008
-2.09173e-011
3.99478e-011
1.34446e-008
-2.02634e-011
3.9342e-011
1.34214e-008
-1.96373e-011
3.87496e-011
1.33986e-008
-1.90387e-011
3.81708e-011
1.33761e-008
-1.84669e-011
3.76064e-011
1.33539e-008
-1.79201e-011
3.70584e-011
1.33321e-008
-1.73965e-011
3.65298e-011
1.33105e-008
-1.68887e-011
3.60271e-011
1.32892e-008
-1.6397e-011
3.55629e-011
1.32682e-008
-1.58817e-011
3.51401e-011
1.32473e-008
-1.53892e-011
3.48481e-011
1.32266e-008
-1.46779e-011
3.43558e-011
1.32054e-008
-1.4135e-011
3.48062e-011
1.31878e-008
-1.25316e-011
3.05079e-011
-1.10016e-011
3.85891e-011
5.08425e-008
1.08614e-010
3.57536e-009
4.64922e-008
3.14707e-010
4.53257e-009
4.22649e-008
4.65008e-010
4.46537e-009
3.83381e-008
5.46751e-010
4.17303e-009
3.47937e-008
5.72666e-010
3.78126e-009
3.1703e-008
5.58963e-010
3.30724e-009
2.90854e-008
5.1569e-010
2.80442e-009
2.6917e-008
4.5185e-010
2.32335e-009
2.51533e-008
3.76061e-010
1.88946e-009
2.37417e-008
2.9411e-010
1.51192e-009
2.26266e-008
2.09409e-010
1.19303e-009
2.17544e-008
1.24838e-010
9.30951e-010
2.10763e-008
4.35175e-011
7.20615e-010
2.05503e-008
-3.15732e-011
5.55193e-010
2.01417e-008
-9.81161e-011
4.27417e-010
1.98223e-008
-1.54422e-010
3.30254e-010
1.95702e-008
-1.99688e-010
2.57561e-010
1.93678e-008
-2.33943e-010
2.04057e-010
1.92019e-008
-2.57903e-010
1.65347e-010
1.9062e-008
-2.72757e-010
1.3783e-010
1.89407e-008
-2.7993e-010
1.18594e-010
1.88324e-008
-2.80907e-010
1.05335e-010
1.8733e-008
-2.77091e-010
9.62613e-011
1.86399e-008
-2.69739e-010
9.0053e-011
1.85512e-008
-2.59931e-010
8.57576e-011
1.84657e-008
-2.48561e-010
8.26921e-011
1.83826e-008
-2.3634e-010
8.03776e-011
1.83015e-008
-2.23814e-010
7.8502e-011
1.82221e-008
-2.11381e-010
7.68595e-011
1.81445e-008
-1.99322e-010
7.53159e-011
1.80684e-008
-1.87818e-010
7.38021e-011
1.79941e-008
-1.76979e-010
7.22838e-011
1.79214e-008
-1.66858e-010
7.07505e-011
1.78505e-008
-1.57468e-010
6.92015e-011
1.77814e-008
-1.48794e-010
6.76434e-011
1.7714e-008
-1.40804e-010
6.60856e-011
1.76483e-008
-1.33454e-010
6.45384e-011
1.75845e-008
-1.26695e-010
6.30128e-011
1.75223e-008
-1.20477e-010
6.1516e-011
1.74618e-008
-1.14749e-010
6.00547e-011
1.74029e-008
-1.09462e-010
5.86355e-011
1.73457e-008
-1.04573e-010
5.72641e-011
1.72899e-008
-1.0004e-010
5.59445e-011
1.72356e-008
-9.58272e-011
5.46783e-011
1.71828e-008
-9.19011e-011
5.34659e-011
1.71313e-008
-8.82321e-011
5.23058e-011
1.7081e-008
-8.47945e-011
5.11978e-011
1.70321e-008
-8.15657e-011
5.01399e-011
1.69843e-008
-7.85258e-011
4.91301e-011
1.69376e-008
-7.56574e-011
4.81653e-011
1.68921e-008
-7.29452e-011
4.72426e-011
1.68476e-008
-7.03758e-011
4.63588e-011
1.68041e-008
-6.79372e-011
4.55111e-011
1.67616e-008
-6.56193e-011
4.46968e-011
1.672e-008
-6.34125e-011
4.39133e-011
1.66793e-008
-6.13089e-011
4.31585e-011
1.66395e-008
-5.9301e-011
4.24305e-011
1.66005e-008
-5.73823e-011
4.17275e-011
1.65623e-008
-5.55469e-011
4.1048e-011
1.65249e-008
-5.37896e-011
4.03906e-011
1.64883e-008
-5.21056e-011
3.97544e-011
1.64524e-008
-5.04905e-011
3.91382e-011
1.64172e-008
-4.89404e-011
3.85412e-011
1.63826e-008
-4.74517e-011
3.79623e-011
1.63487e-008
-4.60211e-011
3.74008e-011
1.63155e-008
-4.46457e-011
3.68558e-011
1.62829e-008
-4.33225e-011
3.63263e-011
1.62508e-008
-4.2049e-011
3.58111e-011
1.62194e-008
-4.08228e-011
3.53098e-011
1.61885e-008
-3.96418e-011
3.48217e-011
1.61582e-008
-3.85037e-011
3.43463e-011
1.61283e-008
-3.74069e-011
3.38829e-011
1.6099e-008
-3.63493e-011
3.34311e-011
1.60702e-008
-3.53296e-011
3.29904e-011
1.60419e-008
-3.4346e-011
3.25604e-011
1.60141e-008
-3.33972e-011
3.21404e-011
1.59867e-008
-3.24819e-011
3.17301e-011
1.59597e-008
-3.15989e-011
3.13291e-011
1.59332e-008
-3.07471e-011
3.0937e-011
1.59072e-008
-2.99255e-011
3.05534e-011
1.58815e-008
-2.91334e-011
3.0178e-011
1.58562e-008
-2.83701e-011
2.98105e-011
1.58314e-008
-2.76349e-011
2.94506e-011
1.58069e-008
-2.69276e-011
2.90979e-011
1.57828e-008
-2.62479e-011
2.87522e-011
1.57591e-008
-2.55958e-011
2.84134e-011
1.57357e-008
-2.49714e-011
2.80815e-011
1.57127e-008
-2.43751e-011
2.77566e-011
1.569e-008
-2.38071e-011
2.74397e-011
1.56677e-008
-2.32681e-011
2.7132e-011
1.56457e-008
-2.27583e-011
2.68372e-011
1.5624e-008
-2.2278e-011
2.65596e-011
1.56026e-008
-2.18251e-011
2.63127e-011
1.55815e-008
-2.14003e-011
2.61058e-011
1.55606e-008
-2.09863e-011
2.59877e-011
1.55399e-008
-2.05975e-011
2.59691e-011
1.55193e-008
-2.01254e-011
2.608e-011
1.54982e-008
-1.97102e-011
2.66396e-011
1.548e-008
-1.88857e-011
2.45836e-011
-1.80358e-011
3.12443e-011
5.74121e-008
5.6712e-011
4.0479e-009
5.24313e-008
1.54314e-010
5.14125e-009
4.75778e-008
2.40349e-010
5.07815e-009
4.30675e-008
2.99372e-010
4.7576e-009
3.89952e-008
3.23744e-010
4.32126e-009
3.54471e-008
3.20055e-010
3.78696e-009
3.24533e-008
2.96172e-010
3.21335e-009
2.9989e-008
2.57026e-010
2.65909e-009
2.80017e-008
2.06766e-010
2.15657e-009
2.64278e-008
1.49205e-010
1.71888e-009
2.52e-008
8.73801e-011
1.34981e-009
2.42533e-008
2.38097e-011
1.04764e-009
2.35291e-008
-3.89401e-011
8.06697e-010
2.29768e-008
-9.81619e-011
6.18895e-010
2.25547e-008
-1.51437e-010
4.75395e-010
2.22296e-008
-1.96994e-010
3.67777e-010
2.19753e-008
-2.33852e-010
2.8855e-010
2.17718e-008
-2.61778e-010
2.31323e-010
2.16042e-008
-2.81163e-010
1.90816e-010
2.14616e-008
-2.9284e-010
1.62707e-010
2.1336e-008
-2.9791e-010
1.43564e-010
2.12218e-008
-2.97569e-010
1.30722e-010
2.11155e-008
-2.92992e-010
1.22184e-010
2.10146e-008
-2.85251e-010
1.16482e-010
2.09174e-008
-2.75284e-010
1.12542e-010
2.08231e-008
-2.63879e-010
1.09619e-010
2.07313e-008
-2.51677e-010
1.0722e-010
2.06417e-008
-2.3918e-010
1.05033e-010
2.05542e-008
-2.26756e-010
1.02884e-010
2.04689e-008
-2.14663e-010
1.00672e-010
2.03858e-008
-2.03074e-010
9.83611e-011
2.0305e-008
-1.92091e-010
9.59462e-011
2.02264e-008
-1.81767e-010
9.34416e-011
2.01502e-008
-1.72117e-010
9.08701e-011
2.00762e-008
-1.63132e-010
8.82553e-011
2.00045e-008
-1.54784e-010
8.56241e-011
1.99351e-008
-1.47037e-010
8.29982e-011
1.98679e-008
-1.3985e-010
8.04e-011
1.98027e-008
-1.3318e-010
7.78468e-011
1.97396e-008
-1.26983e-010
7.53539e-011
1.96785e-008
-1.21219e-010
7.29338e-011
1.96192e-008
-1.15848e-010
7.05947e-011
1.95617e-008
-1.10835e-010
6.83447e-011
1.95058e-008
-1.06147e-010
6.61862e-011
1.94516e-008
-1.01755e-010
6.41236e-011
1.93988e-008
-9.76325e-011
6.21565e-011
1.93475e-008
-9.37558e-011
6.02842e-011
1.92975e-008
-9.01039e-011
5.85027e-011
1.92488e-008
-8.66578e-011
5.68083e-011
1.92014e-008
-8.34008e-011
5.51967e-011
1.91551e-008
-8.03177e-011
5.36632e-011
1.91099e-008
-7.73955e-011
5.22035e-011
1.90657e-008
-7.46221e-011
5.08129e-011
1.90226e-008
-7.1987e-011
4.94877e-011
1.89805e-008
-6.94807e-011
4.82235e-011
1.89392e-008
-6.70946e-011
4.7017e-011
1.88989e-008
-6.48209e-011
4.58649e-011
1.88594e-008
-6.26526e-011
4.47641e-011
1.88207e-008
-6.05833e-011
4.37122e-011
1.87828e-008
-5.86071e-011
4.27063e-011
1.87457e-008
-5.67187e-011
4.17446e-011
1.87093e-008
-5.49131e-011
4.08244e-011
1.86736e-008
-5.31857e-011
3.99441e-011
1.86386e-008
-5.15323e-011
3.91014e-011
1.86042e-008
-4.9949e-011
3.82947e-011
1.85705e-008
-4.8432e-011
3.75218e-011
1.85374e-008
-4.69781e-011
3.67812e-011
1.85048e-008
-4.5584e-011
3.60709e-011
1.84729e-008
-4.42467e-011
3.53895e-011
1.84414e-008
-4.29636e-011
3.47352e-011
1.84106e-008
-4.1732e-011
3.41069e-011
1.83802e-008
-4.05495e-011
3.35029e-011
1.83503e-008
-3.94139e-011
3.29221e-011
1.8321e-008
-3.8323e-011
3.2363e-011
1.82921e-008
-3.72749e-011
3.18248e-011
1.82636e-008
-3.62678e-011
3.13059e-011
1.82357e-008
-3.52998e-011
3.08056e-011
1.82081e-008
-3.43696e-011
3.03227e-011
1.8181e-008
-3.34755e-011
2.98564e-011
1.81543e-008
-3.26165e-011
2.94057e-011
1.8128e-008
-3.17913e-011
2.89699e-011
1.8102e-008
-3.09991e-011
2.85481e-011
1.80765e-008
-3.02391e-011
2.81397e-011
1.80513e-008
-2.95108e-011
2.77438e-011
1.80266e-008
-2.8814e-011
2.73599e-011
1.80021e-008
-2.81485e-011
2.69875e-011
1.7978e-008
-2.75149e-011
2.66263e-011
1.79543e-008
-2.69137e-011
2.62762e-011
1.79309e-008
-2.63464e-011
2.59382e-011
1.79078e-008
-2.58148e-011
2.56135e-011
1.78851e-008
-2.53217e-011
2.53067e-011
1.78627e-008
-2.48703e-011
2.50228e-011
1.78405e-008
-2.44673e-011
2.47798e-011
1.78187e-008
-2.41139e-011
2.4586e-011
1.7797e-008
-2.38345e-011
2.45187e-011
1.77754e-008
-2.35949e-011
2.45474e-011
1.7754e-008
-2.35384e-011
2.49091e-011
1.77321e-008
-2.33383e-011
2.54724e-011
1.77125e-008
-2.38103e-011
2.45074e-011
-2.30311e-011
3.02915e-011
6.48395e-008
1.89476e-011
4.57907e-009
5.91743e-008
4.34734e-012
5.81514e-009
5.36433e-008
3.25976e-011
5.73879e-009
4.85131e-008
6.3617e-011
5.3659e-009
4.38971e-008
8.09096e-011
4.85878e-009
3.989e-008
8.69236e-011
4.24028e-009
3.65232e-008
8.51794e-011
3.57776e-009
3.37664e-008
7.5648e-011
2.93813e-009
3.15563e-008
5.78142e-011
2.35906e-009
2.98172e-008
3.22086e-011
1.85618e-009
2.84709e-008
-9.93743e-014
1.43369e-009
2.74429e-008
-3.75911e-011
1.08941e-009
2.66651e-008
-7.80924e-011
8.16883e-010
2.60793e-008
-1.19038e-010
6.06779e-010
2.56371e-008
-1.57859e-010
4.48668e-010
2.53001e-008
-1.92438e-010
3.32456e-010
2.50385e-008
-2.21328e-010
2.49105e-010
2.48296e-008
-2.43809e-010
1.90926e-010
2.46567e-008
-2.59799e-010
1.51584e-010
2.45075e-008
-2.69698e-010
1.2596e-010
2.43738e-008
-2.74244e-010
1.10035e-010
2.42498e-008
-2.74331e-010
1.00733e-010
2.41319e-008
-2.7086e-010
9.57564e-011
2.40179e-008
-2.6467e-010
9.3447e-011
2.39065e-008
-2.56518e-010
9.26455e-011
2.37971e-008
-2.47063e-010
9.25806e-011
2.36896e-008
-2.36857e-010
9.27612e-011
2.35839e-008
-2.26335e-010
9.28853e-011
2.34802e-008
-2.15813e-010
9.27993e-011
2.33786e-008
-2.05514e-010
9.24307e-011
2.32794e-008
-1.95583e-010
9.17715e-011
2.31825e-008
-1.86109e-010
9.08388e-011
2.30882e-008
-1.77137e-010
8.96666e-011
2.29964e-008
-1.68683e-010
8.82961e-011
2.29073e-008
-1.60742e-010
8.67648e-011
2.28206e-008
-1.53296e-010
8.51132e-011
2.27366e-008
-1.46319e-010
8.3373e-011
2.26549e-008
-1.39782e-010
8.1576e-011