/*--------------------------------*- C++ -*----------------------------------*\
| =========                 |                                                 |
| \\      /  F ield         | OpenFOAM: The Open Source CFD Toolbox           |
|  \\    /   O peration     | Version:  5.x                                   |
|   \\  /    A nd           | Web:      www.OpenFOAM.org                      |
|    \\/     M anipulation  |                                                 |
\*---------------------------------------------------------------------------*/
/*   Windows 32 and 64 bit porting by blueCAPE: http://www.bluecape.com.pt   *\
|  Based on Windows porting (2.0.x v4) by Symscape: http://www.symscape.com   |
\*---------------------------------------------------------------------------*/
FoamFile
{
    version     2.0;
    format      ascii;
    class       volVectorField;
    location    "63";
    object      U;
}
// * * * * * * * * * * * * * * * * * * * * * * * * * * * * * * * * * * * * * //

dimensions      [0 1 -1 0 0 0 0];

internalField   nonuniform List<vector> 
10000
(
(9.21828 0.142611 0.142611)
(7.91791 0.263414 0.263414)
(6.54731 0.261153 0.261153)
(5.18108 0.207074 0.207074)
(4.06815 0.139857 0.139857)
(3.28093 0.0811031 0.0811023)
(2.73913 0.0418269 0.0418264)
(2.35201 0.021549 0.0215493)
(2.0643 0.0135095 0.0135102)
(1.84186 0.0109974 0.0109979)
(1.6627 0.00993454 0.00993457)
(1.51545 0.0086862 0.00868606)
(1.39536 0.00705466 0.00705466)
(1.29947 0.00535471 0.00535497)
(1.22454 0.00387364 0.00387404)
(1.16697 0.0027253 0.00272561)
(1.1233 0.00190416 0.00190415)
(1.09038 0.00135211 0.00135171)
(1.06557 0.000999494 0.000998791)
(1.04673 0.000782568 0.000781778)
(1.03219 0.000653559 0.000652931)
(1.0207 0.00057961 0.000579336)
(1.01132 0.000538542 0.0005387)
(1.00337 0.00051562 0.000516165)
(0.996358 0.000501377 0.000502163)
(0.989937 0.000490206 0.000491038)
(0.983877 0.000479092 0.000479776)
(0.978022 0.000466727 0.000467123)
(0.972276 0.000452817 0.000452863)
(0.966583 0.000437585 0.000437302)
(0.960912 0.000421511 0.000420986)
(0.95525 0.00040509 0.000404445)
(0.949598 0.000388744 0.000388109)
(0.94396 0.000372871 0.000372357)
(0.938344 0.00035779 0.000357479)
(0.932761 0.000343699 0.000343627)
(0.927221 0.00033074 0.000330901)
(0.921735 0.000318989 0.000319337)
(0.916311 0.000308417 0.000308885)
(0.910957 0.000299014 0.000299527)
(0.905678 0.000290685 0.000291173)
(0.900477 0.000283306 0.000283713)
(0.895359 0.00027674 0.000277028)
(0.890324 0.000270863 0.000271012)
(0.885375 0.000265553 0.000265565)
(0.880512 0.0002607 0.000260592)
(0.875736 0.000256214 0.000256013)
(0.871047 0.000252018 0.000251758)
(0.866443 0.000248052 0.000247764)
(0.861926 0.000244267 0.000243978)
(0.857492 0.000240621 0.000240353)
(0.853143 0.000237092 0.000236858)
(0.848876 0.000233655 0.000233463)
(0.84469 0.000230306 0.000230155)
(0.840583 0.000227024 0.000226909)
(0.836554 0.000223806 0.000223722)
(0.832602 0.000220639 0.000220579)
(0.828724 0.000217526 0.000217485)
(0.824918 0.000214448 0.00021442)
(0.821184 0.000211411 0.000211393)
(0.81752 0.000208424 0.000208414)
(0.813923 0.000205486 0.000205483)
(0.810393 0.00020258 0.000202584)
(0.806926 0.000199703 0.000199715)
(0.803523 0.000196851 0.000196874)
(0.800181 0.000194027 0.000194061)
(0.796898 0.00019123 0.000191274)
(0.793674 0.000188467 0.00018852)
(0.790507 0.000185738 0.000185796)
(0.787395 0.000183048 0.000183108)
(0.784338 0.000180393 0.000180449)
(0.781333 0.000177776 0.000177826)
(0.778379 0.000175194 0.000175236)
(0.775476 0.000172652 0.000172684)
(0.772622 0.000170144 0.000170165)
(0.769815 0.000167671 0.000167683)
(0.767055 0.000165231 0.000165234)
(0.76434 0.000162828 0.000162823)
(0.76167 0.000160457 0.000160446)
(0.759043 0.00015812 0.000158104)
(0.756459 0.000155812 0.000155793)
(0.753917 0.000153537 0.000153515)
(0.751415 0.000151287 0.000151264)
(0.748953 0.000149062 0.000149041)
(0.74653 0.000146858 0.000146839)
(0.744145 0.000144678 0.000144662)
(0.741798 0.000142517 0.000142506)
(0.739489 0.000140383 0.000140377)
(0.737215 0.000138278 0.000138278)
(0.734978 0.000136235 0.00013624)
(0.732775 0.000134237 0.000134248)
(0.730606 0.000132464 0.00013248)
(0.728471 0.000130526 0.000130547)
(0.726359 0.000129937 0.000129962)
(0.724292 0.00012604 0.000126069)
(0.722197 0.000132871 0.000132905)
(0.720278 0.000105332 0.000105369)
(0.718011 0.000162396 0.00016244)
(0.716904 -4.86873e-005 -4.86526e-005)
(0.71431 0.000268655 0.000268674)
(9.75176 0.21395 0.152348)
(9.37557 0.410488 0.308901)
(8.77828 0.446066 0.34411)
(7.95951 0.420665 0.319272)
(7.09242 0.36611 0.266384)
(6.28617 0.29575 0.204259)
(5.57003 0.225958 0.147076)
(4.94992 0.168182 0.101931)
(4.42814 0.125207 0.0694649)
(3.99909 0.0947186 0.0472673)
(3.6498 0.0730417 0.0323893)
(3.3659 0.0569396 0.0223921)
(3.13526 0.0442612 0.0156062)
(2.94818 0.0339115 0.0110119)
(2.79674 0.0254332 0.00798301)
(2.67428 0.0186069 0.00608258)
(2.5752 0.0132641 0.00496897)
(2.4948 0.00922563 0.00437161)
(2.42918 0.00628174 0.00408127)
(2.37519 0.00421754 0.00395204)
(2.3303 0.00283668 0.00388615)
(2.29248 0.00197296 0.00382315)
(2.26015 0.00149062 0.00373072)
(2.23206 0.00128106 0.00359637)
(2.20723 0.00125879 0.00342034)
(2.18493 0.00135806 0.00321013)
(2.16459 0.00152936 0.00297638)
(2.14576 0.00173645 0.00273025)
(2.12813 0.00195385 0.00248183)
(2.11145 0.00216434 0.00223939)
(2.09554 0.00235713 0.00200913)
(2.08028 0.00252609 0.00179523)
(2.06555 0.00266882 0.00160025)
(2.0513 0.00278459 0.0014253)
(2.03746 0.0028736 0.00127021)
(2.02401 0.00293753 0.00113423)
(2.01091 0.00297909 0.00101626)
(1.99815 0.00300131 0.000914899)
(1.98571 0.00300708 0.00082848)
(1.97358 0.00299931 0.000755392)
(1.96175 0.0029805 0.000693998)
(1.9502 0.00295279 0.000642739)
(1.93892 0.00291797 0.000600123)
(1.92791 0.00287753 0.000564817)
(1.91717 0.00283277 0.000535619)
(1.90667 0.00278471 0.000511479)
(1.89641 0.00273427 0.000491481)
(1.88639 0.00268218 0.000474848)
(1.8766 0.00262906 0.00046093)
(1.86703 0.00257543 0.000449186)
(1.85767 0.00252169 0.000439164)
(1.84853 0.00246818 0.000430514)
(1.83958 0.00241518 0.00042295)
(1.83083 0.00236291 0.000416261)
(1.82227 0.00231155 0.000410253)
(1.8139 0.00226121 0.000404789)
(1.8057 0.002212 0.000399748)
(1.79767 0.00216399 0.000395051)
(1.78981 0.00211719 0.000390614)
(1.78211 0.00207162 0.00038639)
(1.77457 0.00202733 0.00038232)
(1.76718 0.00198435 0.000378371)
(1.75994 0.00194266 0.000374497)
(1.75284 0.0019022 0.000370677)
(1.74588 0.00186295 0.000366879)
(1.73905 0.00182487 0.000363091)
(1.73235 0.00178792 0.000359282)
(1.72578 0.0017521 0.000355454)
(1.71933 0.00171737 0.0003516)
(1.713 0.00168372 0.000347737)
(1.70678 0.0016511 0.000343861)
(1.70068 0.00161948 0.000339985)
(1.69468 0.0015888 0.000336105)
(1.68879 0.00155905 0.000332234)
(1.683 0.00153017 0.000328353)
(1.67732 0.00150214 0.000324466)
(1.67173 0.00147491 0.000320568)
(1.66623 0.00144845 0.000316679)
(1.66083 0.00142273 0.000312792)
(1.65552 0.00139771 0.00030892)
(1.65029 0.00137335 0.000305058)
(1.64515 0.00134962 0.000301221)
(1.6401 0.00132648 0.000297398)
(1.63512 0.00130388 0.000293595)
(1.63023 0.0012818 0.000289803)
(1.62541 0.00126019 0.000286035)
(1.62067 0.00123903 0.000282282)
(1.61601 0.00121831 0.000278556)
(1.61142 0.00119803 0.000274858)
(1.6069 0.00117828 0.000271232)
(1.60245 0.00115912 0.000267637)
(1.59807 0.00114088 0.000264306)
(1.59376 0.0011235 0.000260667)
(1.5895 0.00110864 0.000258878)
(1.58533 0.00109214 0.000252299)
(1.58113 0.0010885 0.000261577)
(1.57721 0.00104287 0.00021894)
(1.57272 0.00109819 0.000309966)
(1.57007 0.000737446 -7.85611e-005)
(1.56431 0.00113222 0.000502934)
(9.61219 0.105462 0.149839)
(9.02223 0.214554 0.295427)
(8.42087 0.249293 0.320301)
(7.76672 0.262644 0.295577)
(7.13224 0.261464 0.252718)
(6.5519 0.241206 0.202763)
(6.01975 0.208482 0.153651)
(5.53269 0.172931 0.110701)
(5.09798 0.139662 0.0758041)
(4.72142 0.110049 0.0488566)
(4.40216 0.0842006 0.0289926)
(4.1352 0.061978 0.0150399)
(3.91425 0.0431944 0.0057511)
(3.73274 0.027662 -7.05875e-006)
(3.58422 0.0151806 -0.00317333)
(3.46255 0.00548623 -0.00450627)
(3.36235 -0.00177586 -0.00461932)
(3.27926 -0.00700313 -0.00399037)
(3.20973 -0.0105717 -0.00296843)
(3.15083 -0.012822 -0.00179447)
(3.10023 -0.0140464 -0.000625824)
(3.05609 -0.0144897 0.000441682)
(3.01701 -0.0143535 0.00135687)
(2.98191 -0.0138021 0.00210011)
(2.94998 -0.0129674 0.00267275)
(2.9206 -0.0119539 0.00308903)
(2.89332 -0.0108427 0.00336961)
(2.86778 -0.0096955 0.00353749)
(2.84372 -0.00855721 0.00361509)
(2.82093 -0.00745936 0.00362276)
(2.79926 -0.00642267 0.003578)
(2.77858 -0.00545966 0.00349529)
(2.75878 -0.00457631 0.00338622)
(2.7398 -0.00377453 0.00325984)
(2.72156 -0.00305361 0.00312347)
(2.70399 -0.00241016 0.00298273)
(2.68706 -0.00183888 0.0028418)
(2.67071 -0.00133366 0.00270365)
(2.65491 -0.000888306 0.00257034)
(2.63962 -0.000496429 0.00244346)
(2.6248 -0.000151958 0.00232387)
(2.61044 0.000150696 0.00221196)
(2.5965 0.000416561 0.00210765)
(2.58295 0.000650088 0.0020107)
(2.56979 0.000855205 0.00192067)
(2.55698 0.00103534 0.0018371)
(2.54451 0.00119353 0.00175943)
(2.53236 0.0013324 0.0016871)
(2.52052 0.00145427 0.00161958)
(2.50897 0.00156115 0.0015564)
(2.4977 0.0016548 0.00149712)
(2.4867 0.00173675 0.00144135)
(2.47595 0.00180836 0.00138877)
(2.46546 0.0018708 0.00133915)
(2.45519 0.00192511 0.00129224)
(2.44516 0.00197218 0.00124787)
(2.43534 0.00201281 0.00120584)
(2.42573 0.0020477 0.00116605)
(2.41633 0.0020775 0.00112833)
(2.40712 0.00210275 0.00109257)
(2.3981 0.00212385 0.0010586)
(2.38925 0.00214112 0.00102633)
(2.38059 0.00215492 0.000995631)
(2.37209 0.00216558 0.000966418)
(2.36376 0.0021734 0.000938577)
(2.35558 0.00217864 0.000912027)
(2.34756 0.00218152 0.000886654)
(2.33968 0.00218227 0.000862391)
(2.33196 0.00218111 0.000839154)
(2.32437 0.00217822 0.000816906)
(2.31691 0.00217376 0.000795576)
(2.30959 0.00216787 0.000775135)
(2.30239 0.00216068 0.000755532)
(2.29532 0.0021523 0.000736748)
(2.28837 0.00214284 0.00071871)
(2.28153 0.00213239 0.00070137)
(2.27481 0.00212102 0.000684666)
(2.2682 0.00210881 0.000668591)
(2.2617 0.00209584 0.000653095)
(2.2553 0.00208215 0.000638166)
(2.24901 0.0020678 0.000623767)
(2.24282 0.00205281 0.000609906)
(2.23672 0.00203722 0.000596537)
(2.23072 0.00202104 0.000583644)
(2.22481 0.00200429 0.000571186)
(2.21899 0.00198698 0.000559165)
(2.21326 0.00196913 0.000547542)
(2.20762 0.00195079 0.000536313)
(2.20206 0.00193204 0.000525463)
(2.19659 0.00191302 0.000515042)
(2.1912 0.00189404 0.000505009)
(2.18589 0.00187551 0.000495585)
(2.18066 0.00185809 0.000486284)
(2.1755 0.00184302 0.000479238)
(2.17043 0.00182972 0.000467933)
(2.16533 0.0018256 0.000473987)
(2.16055 0.00180018 0.000420462)
(2.15507 0.00183741 0.000525423)
(2.15187 0.00160434 -9.84725e-006)
(2.14431 0.0018629 0.000806948)
(9.60257 0.0605132 0.149741)
(8.94958 0.150665 0.296615)
(8.2729 0.197435 0.321927)
(7.55485 0.216053 0.296641)
(6.87913 0.216716 0.252757)
(6.29161 0.202681 0.201271)
(5.78705 0.179247 0.150458)
(5.3513 0.152476 0.106224)
(4.97824 0.12568 0.0706199)
(4.66415 0.0998581 0.0433111)
(4.40307 0.0754026 0.0231886)
(4.18783 0.0527626 0.00896744)
(4.01173 0.0323898 -0.000630899)
(3.86872 0.014645 -0.00673468)
(3.75319 -0.000241725 -0.0102627)
(3.66008 -0.0122216 -0.0119345)
(3.585 -0.0214392 -0.0123038)
(3.52402 -0.0281811 -0.0117951)
(3.47383 -0.0327911 -0.0107373)
(3.43176 -0.0356228 -0.00937787)
(3.39569 -0.0370191 -0.00789599)
(3.36403 -0.0372964 -0.00641672)
(3.33557 -0.0367328 -0.0050222)
(3.30945 -0.0355631 -0.00376143)
(3.28507 -0.0339795 -0.00265812)
(3.26198 -0.0321354 -0.00171783)
(3.23992 -0.03015 -0.000934234)
(3.21868 -0.0281136 -0.000294011)
(3.19816 -0.0260923 0.000219761)
(3.17827 -0.0241324 0.000624961)
(3.15897 -0.0222642 0.000938563)
(3.14022 -0.0205059 0.0011759)
(3.122 -0.0188671 0.00135046)
(3.10429 -0.0173507 0.00147392)
(3.08709 -0.0159548 0.00155638)
(3.07038 -0.0146744 0.0016064)
(3.05415 -0.0135025 0.00163142)
(3.03838 -0.0124309 0.00163708)
(3.02306 -0.0114511 0.00162826)
(3.00817 -0.0105548 0.00160992)
(2.9937 -0.00973446 0.00158597)
(2.97963 -0.00898273 0.00155909)
(2.96595 -0.00829294 0.00153097)
(2.95263 -0.00765895 0.00150269)
(2.93967 -0.0070752 0.00147491)
(2.92705 -0.00653673 0.00144798)
(2.91475 -0.00603906 0.00142201)
(2.90277 -0.00557823 0.00139696)
(2.89109 -0.0051507 0.00137271)
(2.87969 -0.00475336 0.0013491)
(2.86857 -0.00438345 0.00132596)
(2.85772 -0.00403853 0.00130316)
(2.84713 -0.0037164 0.00128062)
(2.83678 -0.00341513 0.00125834)
(2.82667 -0.00313299 0.0012363)
(2.81678 -0.00286845 0.00121454)
(2.80711 -0.00262011 0.00119311)
(2.79766 -0.00238674 0.00117205)
(2.78841 -0.00216717 0.00115138)
(2.77935 -0.00196039 0.00113109)
(2.77049 -0.00176559 0.00111121)
(2.76181 -0.00158202 0.00109178)
(2.7533 -0.00140899 0.0010728)
(2.74497 -0.00124581 0.00105426)
(2.7368 -0.00109184 0.00103611)
(2.72879 -0.000946487 0.00101825)
(2.72093 -0.000809195 0.00100062)
(2.71322 -0.000679509 0.000983226)
(2.70565 -0.000557015 0.000966078)
(2.69823 -0.00044133 0.000949183)
(2.69093 -0.000332093 0.000932544)
(2.68377 -0.000228969 0.000916173)
(2.67673 -0.000131633 0.000900091)
(2.66982 -3.9785e-005 0.00088431)
(2.66302 4.68616e-005 0.000868809)
(2.65634 0.000128568 0.000853547)
(2.64978 0.000205585 0.000838503)
(2.64332 0.000278142 0.000823674)
(2.63697 0.000346454 0.000809057)
(2.63072 0.000410709 0.000794654)
(2.62457 0.000471085 0.000780483)
(2.61851 0.000527734 0.000766568)
(2.61256 0.000580793 0.000752908)
(2.60669 0.000630376 0.000739497)
(2.60092 0.00067659 0.000726332)
(2.59523 0.000719527 0.00071342)
(2.58963 0.000759292 0.000700759)
(2.58412 0.000795997 0.000688355)
(2.57869 0.000829816 0.000676241)
(2.57334 0.000860985 0.000664483)
(2.56807 0.000889952 0.000653124)
(2.56287 0.000917225 0.000642394)
(2.55775 0.000944167 0.000632116)
(2.5527 0.000971279 0.000624181)
(2.54773 0.00100307 0.00061362)
(2.54274 0.00103625 0.000619446)
(2.53804 0.00108459 0.000571516)
(2.53261 0.00113292 0.000675662)
(2.5295 0.00118015 0.000141072)
(2.52173 0.00136325 0.000979172)
(9.59977 0.0406526 0.149824)
(8.92612 0.110292 0.298258)
(8.21812 0.152564 0.324683)
(7.47109 0.169422 0.298862)
(6.77092 0.170117 0.253397)
(6.16409 0.160183 0.199863)
(5.64903 0.143124 0.146849)
(5.21361 0.122452 0.100666)
(4.85057 0.100672 0.0636707)
(4.5537 0.0788741 0.035593)
(4.31432 0.0575206 0.0152511)
(4.12278 0.0370579 0.00124843)
(3.97031 0.0180092 -0.00783316)
(3.84949 0.000882543 -0.0132798)
(3.75407 -0.0138907 -0.0161479)
(3.67872 -0.0260859 -0.0172196)
(3.61894 -0.035671 -0.0170681)
(3.57109 -0.0427709 -0.0161223)
(3.5322 -0.0476338 -0.0147023)
(3.49992 -0.0505807 -0.0130394)
(3.47242 -0.0519586 -0.0112965)
(3.44834 -0.0521039 -0.0095849)
(3.42664 -0.0513203 -0.00797694)
(3.40661 -0.0498678 -0.00651551)
(3.38775 -0.0479607 -0.0052201)
(3.36971 -0.0457702 -0.00409347)
(3.35229 -0.0434289 -0.00312754)
(3.33534 -0.0410364 -0.00230893)
(3.31879 -0.0386648 -0.00162176)
(3.3026 -0.0363641 -0.00104893)
(3.28676 -0.0341671 -0.000574479)
(3.27127 -0.0320935 -0.000184428)
(3.25611 -0.0301529 0.000133161)
(3.24131 -0.0283479 0.000388599)
(3.22687 -0.0266761 0.000590919)
(3.21278 -0.0251319 0.000748242)
(3.19905 -0.0237076 0.000867917)
(3.18568 -0.0223941 0.000957148)
(3.17265 -0.021182 0.00102235)
(3.15998 -0.0200622 0.00106821)
(3.14764 -0.0190264 0.00109873)
(3.13563 -0.0180666 0.0011175)
(3.12394 -0.0171754 0.00112754)
(3.11256 -0.0163461 0.00113125)
(3.10147 -0.0155725 0.00113039)
(3.09066 -0.0148493 0.00112626)
(3.08013 -0.0141717 0.0011197)
(3.06986 -0.0135354 0.00111126)
(3.05983 -0.0129365 0.00110122)
(3.05005 -0.0123718 0.00108976)
(3.04049 -0.0118382 0.00107702)
(3.03115 -0.0113333 0.00106311)
(3.02202 -0.0108546 0.00104822)
(3.0131 -0.0104001 0.00103258)
(3.00437 -0.00996808 0.00101643)
(2.99583 -0.0095568 0.001)
(2.98747 -0.00916484 0.000983549)
(2.97928 -0.00879089 0.000967282)
(2.97126 -0.0084338 0.000951351)
(2.9634 -0.00809255 0.000935872)
(2.9557 -0.00776616 0.000920946)
(2.94815 -0.00745374 0.000906647)
(2.94075 -0.00715448 0.000892998)
(2.93349 -0.00686767 0.000879988)
(2.92636 -0.00659265 0.000867596)
(2.91937 -0.00632877 0.000855812)
(2.9125 -0.00607548 0.000844534)
(2.90576 -0.00583228 0.000833592)
(2.89914 -0.00559872 0.000822861)
(2.89264 -0.00537438 0.000812288)
(2.88625 -0.00515886 0.000801864)
(2.87998 -0.00495179 0.000791611)
(2.87381 -0.00475279 0.000781562)
(2.86774 -0.00456152 0.000771731)
(2.86178 -0.00437768 0.000762093)
(2.85591 -0.00420094 0.000752604)
(2.85014 -0.00403103 0.000743236)
(2.84446 -0.00386768 0.000733979)
(2.83888 -0.00371066 0.000724828)
(2.83338 -0.00355973 0.000715791)
(2.82797 -0.00341469 0.000706887)
(2.82265 -0.00327538 0.000698141)
(2.81741 -0.00314163 0.000689556)
(2.81225 -0.00301331 0.000681127)
(2.80716 -0.0028903 0.000672855)
(2.80216 -0.00277252 0.000664744)
(2.79722 -0.00265985 0.000656793)
(2.79237 -0.0025522 0.000649012)
(2.78758 -0.00244942 0.000641442)
(2.78287 -0.00235132 0.000634159)
(2.77823 -0.00225747 0.000627278)
(2.77365 -0.00216745 0.000621047)
(2.76914 -0.00207968 0.00061573)
(2.76469 -0.00199416 0.000612715)
(2.7603 -0.00190347 0.000610203)
(2.7559 -0.00181641 0.000620497)
(2.75172 -0.00169103 0.000599488)
(2.74695 -0.00159565 0.000690483)
(2.74407 -0.00133679 0.000308385)
(2.73706 -0.00104993 0.000957435)
(9.59776 0.0266143 0.149834)
(8.91039 0.0729623 0.299004)
(8.18174 0.104506 0.326019)
(7.41695 0.1206 0.300042)
(6.7048 0.125488 0.254124)
(6.08963 0.122357 0.200049)
(5.56944 0.113001 0.146198)
(5.13307 0.0993699 0.0988709)
(4.77343 0.0833764 0.0607023)
(4.48355 0.0662699 0.0317036)
(4.2538 0.0487723 0.0108293)
(4.07354 0.0314733 -0.0033111)
(3.93301 0.0149801 -0.0122143)
(3.8239 -0.000143851 -0.0172874)
(3.73923 -0.0134813 -0.0196982)
(3.67329 -0.0247306 -0.020316)
(3.62151 -0.0337523 -0.0197713)
(3.58031 -0.0405756 -0.0185179)
(3.54689 -0.0453661 -0.0168766)
(3.51911 -0.0483767 -0.0150682)
(3.49535 -0.0498994 -0.0132409)
(3.47441 -0.0502305 -0.0114916)
(3.45543 -0.0496462 -0.0098803)
(3.43782 -0.0483905 -0.00843803)
(3.42116 -0.0466701 -0.00717303)
(3.40517 -0.0446543 -0.00607839)
(3.38969 -0.0424768 -0.00513911)
(3.3746 -0.0402394 -0.0043362)
(3.35984 -0.0380162 -0.00365087)
(3.3454 -0.0358593 -0.00306693)
(3.33127 -0.0338028 -0.00257027)
(3.31743 -0.0318667 -0.00214912)
(3.30391 -0.0300611 -0.00179344)
(3.2907 -0.0283881 -0.00149482)
(3.27782 -0.026845 -0.00124579)
(3.26526 -0.0254257 -0.00103951)
(3.25302 -0.0241218 -0.000869595)
(3.24111 -0.0229243 -0.000729917)
(3.22951 -0.0218238 -0.000614992)
(3.21823 -0.0208108 -0.000519906)
(3.20726 -0.0198764 -0.000440335)
(3.19658 -0.0190123 -0.000372618)
(3.18618 -0.0182107 -0.000313855)
(3.17606 -0.017465 -0.000261944)
(3.16621 -0.0167691 -0.000215424)
(3.15661 -0.0161177 -0.000173392)
(3.14726 -0.015506 -0.00013521)
(3.13813 -0.0149303 -0.000100609)
(3.12923 -0.0143868 -6.94699e-005)
(3.12055 -0.0138727 -4.17833e-005)
(3.11207 -0.0133852 -1.75004e-005)
(3.10379 -0.012922 3.50015e-006)
(3.0957 -0.0124812 2.14485e-005)
(3.08778 -0.012061 3.66749e-005)
(3.08005 -0.0116599 4.9554e-005)
(3.07248 -0.0112764 6.05e-005)
(3.06508 -0.0109093 6.99187e-005)
(3.05783 -0.0105576 7.81834e-005)
(3.05073 -0.0102202 8.5607e-005)
(3.04378 -0.00989639 9.2437e-005)
(3.03697 -0.00958525 9.88896e-005)
(3.0303 -0.00928611 0.000105109)
(3.02376 -0.0089983 0.000111198)
(3.01734 -0.00872125 0.000117176)
(3.01105 -0.00845442 0.000123043)
(3.00487 -0.00819734 0.000128732)
(2.99881 -0.00794954 0.000134157)
(2.99287 -0.00771063 0.000139213)
(2.98703 -0.00748019 0.000143858)
(2.98129 -0.00725785 0.00014808)
(2.97566 -0.00704325 0.000151913)
(2.97013 -0.00683607 0.000155392)
(2.96469 -0.006636 0.000158571)
(2.95934 -0.00644277 0.000161471)
(2.95409 -0.00625612 0.000164101)
(2.94892 -0.0060758 0.000166443)
(2.94384 -0.00590158 0.000168502)
(2.93885 -0.00573327 0.000170291)
(2.93393 -0.00557068 0.00017184)
(2.9291 -0.00541365 0.000173178)
(2.92434 -0.00526202 0.000174356)
(2.91965 -0.00511569 0.000175409)
(2.91504 -0.00497455 0.00017637)
(2.9105 -0.00483853 0.000177247)
(2.90603 -0.00470758 0.000178063)
(2.90163 -0.00458168 0.000178826)
(2.8973 -0.00446082 0.000179559)
(2.89303 -0.00434501 0.000180279)
(2.88883 -0.00423425 0.000181052)
(2.88469 -0.00412854 0.000181964)
(2.88061 -0.00402772 0.000183224)
(2.8766 -0.00393166 0.000185098)
(2.87264 -0.00383941 0.000188317)
(2.86873 -0.0037511 0.000193724)
(2.86488 -0.00366104 0.000202947)
(2.86103 -0.00357539 0.00022106)
(2.85731 -0.00345917 0.000233276)
(2.85319 -0.00336429 0.000311714)
(2.85046 -0.00312469 0.000109437)
(2.84451 -0.00286291 0.000542492)
(9.59645 0.0156601 0.149785)
(8.90133 0.0426352 0.299461)
(8.16058 0.0623161 0.327329)
(7.38255 0.0736212 0.302076)
(6.65829 0.0774963 0.256609)
(6.03287 0.0756328 0.202611)
(5.50502 0.0694393 0.148377)
(5.06445 0.0600979 0.100347)
(4.70424 0.048676 0.0614567)
(4.41677 0.035988 0.0319395)
(4.19155 0.0226057 0.0108079)
(4.01722 0.00902427 -0.00336509)
(3.88337 -0.00422035 -0.0121386)
(3.78117 -0.0165813 -0.0169776)
(3.70323 -0.0275928 -0.0190923)
(3.64348 -0.0369312 -0.0193929)
(3.59711 -0.0444308 -0.0185434)
(3.56045 -0.0500746 -0.0170211)
(3.53069 -0.0539659 -0.0151616)
(3.50576 -0.0562903 -0.0131939)
(3.48415 -0.05728 -0.0112682)
(3.46479 -0.0571831 -0.00947672)
(3.44695 -0.0562396 -0.00786852)
(3.43014 -0.0546673 -0.00646138)
(3.41405 -0.0526553 -0.00525406)
(3.39849 -0.0503619 -0.00423265)
(3.38335 -0.0479144 -0.00337625)
(3.36858 -0.0454119 -0.00266159)
(3.35417 -0.042928 -0.00206629)
(3.3401 -0.0405144 -0.00157144)
(3.32639 -0.0382055 -0.00116138)
(3.31304 -0.036022 -0.000823671)
(3.30006 -0.0339744 -0.000548156)
(3.28746 -0.032066 -0.000326309)
(3.27523 -0.0302947 -0.000150696)
(3.26338 -0.028655 -1.4273e-005)
(3.25189 -0.0271396 8.94566e-005)
(3.24077 -0.0257398 0.00016678)
(3.22999 -0.0244467 0.000223376)
(3.21956 -0.0232513 0.00026435)
(3.20944 -0.0221447 0.000294035)
(3.19964 -0.0211189 0.000315845)
(3.19013 -0.0201663 0.000332427)
(3.18091 -0.0192802 0.000345512)
(3.17195 -0.0184542 0.000356329)
(3.16324 -0.0176827 0.000365429)
(3.15477 -0.0169608 0.000372953)
(3.14652 -0.0162839 0.000378749)
(3.13849 -0.015648 0.000382633)
(3.13066 -0.0150497 0.000384457)
(3.12303 -0.0144856 0.000384128)
(3.11558 -0.0139529 0.000381718)
(3.10831 -0.0134492 0.000377381)
(3.10121 -0.0129722 0.000371423)
(3.09427 -0.0125199 0.000364181)
(3.08748 -0.0120905 0.000356056)
(3.08084 -0.0116824 0.000347435)
(3.07434 -0.011294 0.000338672)
(3.06797 -0.0109242 0.000330062)
(3.06174 -0.0105716 0.000321819)
(3.05564 -0.0102352 0.000314122)
(3.04965 -0.00991397 0.000307066)
(3.04378 -0.00960701 0.000300706)
(3.03802 -0.00931348 0.000295014)
(3.03238 -0.0090326 0.000289936)
(3.02683 -0.00876366 0.00028536)
(3.02139 -0.00850599 0.000281174)
(3.01604 -0.00825898 0.000277262)
(3.01079 -0.00802205 0.000273552)
(3.00563 -0.00779467 0.000269996)
(3.00056 -0.00757637 0.000266573)
(2.99558 -0.00736668 0.00026327)
(2.99067 -0.0071652 0.000260084)
(2.98585 -0.00697154 0.000257)
(2.98111 -0.00678533 0.000253999)
(2.97644 -0.00660625 0.000251056)
(2.97185 -0.00643399 0.000248168)
(2.96732 -0.00626826 0.000245331)
(2.96287 -0.00610882 0.000242561)
(2.95849 -0.00595545 0.000239868)
(2.95417 -0.00580793 0.00023728)
(2.94992 -0.00566612 0.00023481)
(2.94573 -0.00552988 0.000232472)
(2.9416 -0.00539912 0.000230259)
(2.93754 -0.00527377 0.000228177)
(2.93353 -0.00515384 0.000226221)
(2.92958 -0.00503935 0.000224403)
(2.92569 -0.00493039 0.000222734)
(2.92185 -0.00482713 0.000221272)
(2.91807 -0.00472977 0.000220105)
(2.91434 -0.00463859 0.000219463)
(2.91066 -0.00455391 0.000219624)
(2.90703 -0.00447613 0.000221504)
(2.90345 -0.00440539 0.000225725)
(2.89991 -0.00434233 0.000235434)
(2.89638 -0.004285 0.000252569)
(2.89294 -0.00423657 0.000275616)
(2.8892 -0.00417908 0.000343846)
(2.88657 -0.00414621 0.000220304)
(2.88107 -0.00397979 0.000526146)
(9.59533 0.00522637 0.149689)
(8.89531 0.0186776 0.299225)
(8.14821 0.0331853 0.326761)
(7.36386 0.0439062 0.300818)
(6.63544 0.0488539 0.254439)
(6.00895 0.0491055 0.199515)
(5.48261 0.0461765 0.144451)
(5.04539 0.0409222 0.095746)
(4.68984 0.0338802 0.0563984)
(4.40785 0.0255657 0.0266622)
(4.18847 0.0164465 0.00549493)
(4.02014 0.00691136 -0.00860392)
(3.89225 -0.00265772 -0.0172183)
(3.79575 -0.0118594 -0.0218093)
(3.72306 -0.0203076 -0.0235951)
(3.66801 -0.0276927 -0.023516)
(3.6257 -0.0338192 -0.0222694)
(3.59241 -0.0386092 -0.0203616)
(3.56533 -0.0420871 -0.0181504)
(3.54244 -0.0443555 -0.0158791)
(3.52227 -0.0455677 -0.0137015)
(3.50384 -0.0458997 -0.0117049)
(3.48649 -0.0455291 -0.00993033)
(3.46983 -0.0446232 -0.00838746)
(3.45361 -0.0433321 -0.00706622)
(3.43772 -0.0417841 -0.00594468)
(3.42209 -0.0400845 -0.00499611)
(3.40673 -0.0383153 -0.00419424)
(3.39163 -0.036537 -0.00351523)
(3.37684 -0.0347923 -0.00293958)
(3.36236 -0.0331095 -0.00245149)
(3.34823 -0.0315061 -0.00203862)
(3.33445 -0.0299911 -0.00169098)
(3.32104 -0.0285676 -0.00139993)
(3.308 -0.0272346 -0.00115792)
(3.29533 -0.0259886 -0.000957655)
(3.28304 -0.0248246 -0.000792493)
(3.2711 -0.0237368 -0.000656051)
(3.2595 -0.0227191 -0.000542652)
(3.24825 -0.0217658 -0.000447301)
(3.23732 -0.0208711 -0.000365804)
(3.2267 -0.0200299 -0.000294933)
(3.21637 -0.0192375 -0.000232201)
(3.20633 -0.0184894 -0.000175995)
(3.19655 -0.017782 -0.000125217)
(3.18702 -0.0171118 -7.93294e-005)
(3.17774 -0.0164758 -3.80847e-005)
(3.16869 -0.0158712 -1.39134e-006)
(3.15985 -0.0152957 3.07653e-005)
(3.15122 -0.0147473 5.84812e-005)
(3.14279 -0.014224 8.18608e-005)
(3.13455 -0.0137241 0.000101191)
(3.12649 -0.0132462 0.000116792)
(3.1186 -0.012789 0.000129122)
(3.11088 -0.0123514 0.000138637)
(3.10331 -0.0119321 0.000145823)
(3.0959 -0.0115304 0.000151141)
(3.08864 -0.0111452 0.000155001)
(3.08152 -0.0107757 0.000157763)
(3.07454 -0.0104213 0.000159709)
(3.06768 -0.0100813 0.000161076)
(3.06096 -0.00975484 0.000162024)
(3.05435 -0.00944148 0.000162669)
(3.04786 -0.00914059 0.000163078)
(3.04149 -0.00885165 0.000163273)
(3.03523 -0.00857414 0.000163258)
(3.02907 -0.00830758 0.000163003)
(3.02301 -0.00805152 0.000162503)
(3.01705 -0.00780552 0.000161746)
(3.01119 -0.00756917 0.000160763)
(3.00543 -0.0073421 0.000159572)
(2.99975 -0.00712392 0.000158218)
(2.99416 -0.00691429 0.000156724)
(2.98866 -0.00671287 0.000155118)
(2.98323 -0.00651935 0.000153415)
(2.97789 -0.00633341 0.00015163)
(2.97263 -0.00615479 0.000149786)
(2.96744 -0.00598322 0.000147908)
(2.96233 -0.00581847 0.000146021)
(2.95729 -0.00566033 0.000144148)
(2.95232 -0.00550861 0.000142306)
(2.94742 -0.00536316 0.000140509)
(2.94258 -0.00522387 0.000138764)
(2.93781 -0.00509065 0.000137076)
(2.93311 -0.00496348 0.00013545)
(2.92847 -0.00484238 0.000133896)
(2.92388 -0.00472746 0.000132421)
(2.91936 -0.00461894 0.000131052)
(2.9149 -0.00451714 0.000129835)
(2.9105 -0.00442257 0.000128866)
(2.90615 -0.00433603 0.000128331)
(2.90186 -0.0042584 0.000128532)
(2.89762 -0.00419176 0.000130102)
(2.89343 -0.00413652 0.000134072)
(2.88929 -0.00410098 0.000141361)
(2.88514 -0.00407496 0.000159044)
(2.88116 -0.00410713 0.00016531)
(2.87673 -0.00410577 0.0002524)
(2.87389 -0.00433622 2.94511e-006)
(2.86761 -0.00438843 0.00050608)
(9.60678 -0.0201414 0.149833)
(8.93641 -0.0425731 0.301081)
(8.20786 -0.0474941 0.331511)
(7.42675 -0.0447956 0.308232)
(6.69212 -0.0405865 0.263494)
(6.05485 -0.0362566 0.209234)
(5.51507 -0.0321258 0.154057)
(5.06335 -0.0289526 0.104623)
(4.69434 -0.0275189 0.0641926)
(4.40163 -0.0281698 0.0333558)
(4.17504 -0.0308221 0.0113302)
(4.00267 -0.035085 -0.00331517)
(3.87343 -0.0403968 -0.0122324)
(3.77764 -0.046123 -0.0169834)
(3.707 -0.0516667 -0.018856)
(3.65462 -0.0565544 -0.0188355)
(3.61508 -0.0604751 -0.0176524)
(3.58425 -0.0632781 -0.0158388)
(3.55909 -0.0649444 -0.0137669)
(3.53748 -0.065555 -0.0116817)
(3.51795 -0.0652578 -0.00972973)
(3.49955 -0.0642202 -0.00798699)
(3.48171 -0.0626017 -0.00648335)
(3.4641 -0.0605493 -0.00521731)
(3.44656 -0.0581961 -0.00416909)
(3.42903 -0.0556614 -0.00330922)
(3.41151 -0.0530467 -0.00260534)
(3.39404 -0.0504298 -0.00202793)
(3.37666 -0.0478655 -0.00155181)
(3.35943 -0.0453905 -0.0011574)
(3.34239 -0.043028 -0.000829402)
(3.32556 -0.0407908 -0.000556288)
(3.30899 -0.0386844 -0.000329137)
(3.29267 -0.036709 -0.000140502)
(3.27664 -0.0348614 1.57441e-005)
(3.26089 -0.0331361 0.000145268)
(3.24544 -0.0315265 0.00025295)
(3.23027 -0.0300253 0.000343172)
(3.2154 -0.028625 0.000419703)
(3.20081 -0.027318 0.000485518)
(3.18651 -0.0260972 0.000543082)
(3.17248 -0.0249556 0.000593983)
(3.15872 -0.0238868 0.000639425)
(3.14523 -0.0228846 0.000679976)
(3.13199 -0.0219436 0.000715982)
(3.119 -0.0210585 0.000747546)
(3.10625 -0.0202249 0.000774664)
(3.09373 -0.0194384 0.000797405)
(3.08145 -0.0186953 0.00081578)
(3.06939 -0.0179922 0.00083001)
(3.05754 -0.017326 0.000840302)
(3.04591 -0.0166941 0.00084705)
(3.03448 -0.0160939 0.000850652)
(3.02325 -0.0155234 0.000851568)
(3.01222 -0.0149804 0.000850266)
(3.00137 -0.0144632 0.000847148)
(2.99072 -0.0139701 0.000842629)
(2.98024 -0.0134997 0.00083699)
(2.96995 -0.0130506 0.000830538)
(2.95982 -0.0126214 0.000823446)
(2.94987 -0.0122112 0.000815917)
(2.94008 -0.0118187 0.000808052)
(2.93045 -0.0114431 0.000799958)
(2.92098 -0.0110834 0.000791688)
(2.91166 -0.0107389 0.000783285)
(2.9025 -0.0104086 0.000774779)
(2.89348 -0.0100921 0.000766192)
(2.8846 -0.00978844 0.000757562)
(2.87586 -0.00949718 0.000748912)
(2.86727 -0.00921771 0.000740287)
(2.8588 -0.00894949 0.000731719)
(2.85047 -0.008692 0.000723243)
(2.84227 -0.00844477 0.000714893)
(2.8342 -0.00820734 0.000706681)
(2.82624 -0.00797929 0.000698629)
(2.81841 -0.00776022 0.00069073)
(2.8107 -0.00754974 0.000682998)
(2.80311 -0.00734752 0.000675414)
(2.79563 -0.00715323 0.000667992)
(2.78826 -0.00696659 0.000660706)
(2.781 -0.00678734 0.000653565)
(2.77385 -0.00661525 0.000646535)
(2.7668 -0.00645016 0.000639612)
(2.75986 -0.00629191 0.000632762)
(2.75302 -0.00614044 0.000625979)
(2.74628 -0.00599573 0.000619237)
(2.73963 -0.00585789 0.000612537)