/*--------------------------------*- C++ -*----------------------------------*\
| =========                 |                                                 |
| \\      /  F ield         | OpenFOAM: The Open Source CFD Toolbox           |
|  \\    /   O peration     | Version:  5.x                                   |
|   \\  /    A nd           | Web:      www.OpenFOAM.org                      |
|    \\/     M anipulation  |                                                 |
\*---------------------------------------------------------------------------*/
/*   Windows 32 and 64 bit porting by blueCAPE: http://www.bluecape.com.pt   *\
|  Based on Windows porting (2.0.x v4) by Symscape: http://www.symscape.com   |
\*---------------------------------------------------------------------------*/
FoamFile
{
    version     2.0;
    format      ascii;
    class       surfaceScalarField;
    location    "50";
    object      phi;
}
// * * * * * * * * * * * * * * * * * * * * * * * * * * * * * * * * * * * * * //

dimensions      [0 3 -1 0 0 0 0];

internalField   nonuniform List<scalar> 
27900
(
2.58749e-008
1.82352e-009
1.82352e-009
2.13738e-008
2.25053e-009
2.25053e-009
1.71646e-008
2.10462e-009
2.10462e-009
1.36186e-008
1.77296e-009
1.77297e-009
1.0877e-008
1.3708e-009
1.37081e-009
8.89619e-009
9.90417e-010
9.90403e-010
7.50491e-009
6.95652e-010
6.95627e-010
6.51031e-009
4.97306e-010
4.97288e-010
5.76336e-009
3.73472e-010
3.73468e-010
5.17209e-009
2.95625e-010
2.95633e-010
4.6893e-009
2.41386e-010
2.41399e-010
4.29385e-009
1.97714e-010
1.97726e-010
3.97486e-009
1.5949e-010
1.59499e-010
3.72289e-009
1.25974e-010
1.25982e-010
3.52769e-009
9.75943e-011
9.76029e-011
3.37871e-009
7.44747e-011
7.44863e-011
3.26613e-009
5.62762e-011
5.62916e-011
3.18136e-009
4.23721e-011
4.23899e-011
3.1173e-009
3.2011e-011
3.20279e-011
3.06834e-009
2.44676e-011
2.44796e-011
3.03015e-009
1.90848e-011
1.9089e-011
2.99949e-009
1.53212e-011
1.53167e-011
2.97399e-009
1.27487e-011
1.27365e-011
2.95192e-009
1.10345e-011
1.10172e-011
2.93207e-009
9.92601e-012
9.90711e-012
2.91361e-009
9.2343e-012
9.21714e-012
2.89598e-009
8.82051e-012
8.80785e-012
2.8788e-009
8.58557e-012
8.5791e-012
2.86188e-009
8.45976e-012
8.4598e-012
2.84508e-009
8.39673e-012
8.4024e-012
2.82834e-009
8.36486e-012
8.37437e-012
2.81163e-009
8.34422e-012
8.35544e-012
2.79498e-009
8.322e-012
8.33283e-012
2.77838e-009
8.2927e-012
8.30142e-012
2.76187e-009
8.25292e-012
8.25826e-012
2.74547e-009
8.19946e-012
8.20076e-012
2.72921e-009
8.13187e-012
8.12912e-012
2.71311e-009
8.05074e-012
8.04452e-012
2.69721e-009
7.95762e-012
7.94888e-012
2.68151e-009
7.85446e-012
7.84436e-012
2.66604e-009
7.74333e-012
7.73302e-012
2.6508e-009
7.62583e-012
7.61632e-012
2.63581e-009
7.5033e-012
7.49542e-012
2.62106e-009
7.37719e-012
7.37148e-012
2.60658e-009
7.24866e-012
7.24537e-012
2.59235e-009
7.11904e-012
7.11812e-012
2.57838e-009
6.98906e-012
6.99022e-012
2.56466e-009
6.85955e-012
6.8624e-012
2.55121e-009
6.73097e-012
6.73506e-012
2.538e-009
6.60404e-012
6.60891e-012
2.52505e-009
6.47899e-012
6.48421e-012
2.51234e-009
6.35612e-012
6.36136e-012
2.49986e-009
6.23552e-012
6.24053e-012
2.48763e-009
6.11738e-012
6.12203e-012
2.47563e-009
6.00173e-012
6.00596e-012
2.46385e-009
5.88864e-012
5.89244e-012
2.4523e-009
5.77805e-012
5.78146e-012
2.44096e-009
5.67002e-012
5.67309e-012
2.42983e-009
5.56439e-012
5.56717e-012
2.41891e-009
5.46118e-012
5.46371e-012
2.40819e-009
5.36041e-012
5.36272e-012
2.39767e-009
5.26218e-012
5.26424e-012
2.38734e-009
5.16623e-012
5.168e-012
2.3772e-009
5.07256e-012
5.07401e-012
2.36724e-009
4.98102e-012
4.98211e-012
2.35746e-009
4.89172e-012
4.89243e-012
2.34786e-009
4.80447e-012
4.8048e-012
2.33842e-009
4.71935e-012
4.71934e-012
2.32915e-009
4.63618e-012
4.63589e-012
2.32005e-009
4.55516e-012
4.55464e-012
2.3111e-009
4.47607e-012
4.47536e-012
2.30231e-009
4.39897e-012
4.39812e-012
2.29367e-009
4.32368e-012
4.32271e-012
2.28517e-009
4.25038e-012
4.24931e-012
2.27682e-009
4.17884e-012
4.17769e-012
2.2686e-009
4.1091e-012
4.10789e-012
2.26052e-009
4.04091e-012
4.03969e-012
2.25258e-009
3.97444e-012
3.97323e-012
2.24477e-009
3.90939e-012
3.90826e-012
2.23708e-009
3.8458e-012
3.84482e-012
2.22951e-009
3.78345e-012
3.78265e-012
2.22207e-009
3.72253e-012
3.72192e-012
2.21475e-009
3.66277e-012
3.66236e-012
2.20755e-009
3.60428e-012
3.60405e-012
2.20045e-009
3.5468e-012
3.54671e-012
2.19348e-009
3.49054e-012
3.49053e-012
2.18661e-009
3.43519e-012
3.43518e-012
2.17985e-009
3.38084e-012
3.3808e-012
2.1732e-009
3.32733e-012
3.32724e-012
2.16665e-009
3.2752e-012
3.27504e-012
2.16021e-009
3.2243e-012
3.22406e-012
2.15386e-009
3.17615e-012
3.17588e-012
2.1476e-009
3.12869e-012
3.12843e-012
2.14142e-009
3.09231e-012
3.09211e-012
2.13535e-009
3.0377e-012
3.03761e-012
2.12924e-009
3.05664e-012
3.05667e-012
2.12358e-009
2.83628e-012
2.83637e-012
2.11719e-009
3.19416e-012
3.19449e-012
2.11434e-009
1.42511e-012
1.42527e-012
3.8308e-012
3.83125e-012
3.23627e-008
6.63372e-010
2.15225e-009
3.03058e-008
1.51618e-009
2.79124e-009
2.78022e-008
1.76657e-009
2.8416e-009
2.50755e-008
1.80696e-009
2.69269e-009
2.23348e-008
1.68557e-009
2.42599e-009
1.97835e-008
1.43811e-009
2.10354e-009
1.75394e-008
1.15393e-009
1.78579e-009
1.56347e-008
8.98264e-010
1.50373e-009
1.40529e-008
6.91095e-010
1.26424e-009
1.27557e-008
5.28768e-010
1.06397e-009
1.16989e-008
4.01542e-010
8.96706e-010
1.084e-008
3.00145e-010
7.5638e-010
1.01433e-008
2.1795e-010
6.38317e-010
9.57885e-009
1.51177e-010
5.39184e-010
9.12233e-009
9.77133e-011
4.56377e-010
8.75321e-009
5.59871e-011
3.87588e-010
8.45427e-009
2.45335e-011
3.30674e-010
8.21111e-009
1.83509e-012
2.8369e-010
8.01193e-009
-1.37211e-011
2.44893e-010
7.84728e-009
-2.36601e-011
2.12773e-010
7.70954e-009
-2.92624e-011
1.86068e-010
7.59269e-009
-3.15966e-011
1.63742e-010
7.49199e-009
-3.15459e-011
1.44961e-010
7.40376e-009
-2.98285e-011
1.29063e-010
7.32515e-009
-2.70117e-011
1.15523e-010
7.25397e-009
-2.35359e-011
1.03924e-010
7.18857e-009
-1.97341e-011
9.39358e-011
7.12769e-009
-1.58505e-011
8.52959e-011
7.07041e-009
-1.20583e-011
7.77924e-011
7.01602e-009
-8.47141e-012
7.12548e-011
6.964e-009
-5.16134e-012
6.55411e-011
6.91398e-009
-2.16386e-012
6.05346e-011
6.86566e-009
5.11194e-013
5.61366e-011
6.81883e-009
2.86413e-012
5.22636e-011
6.77334e-009
4.902e-012
4.88413e-011
6.72909e-009
6.6455e-012
4.58071e-011
6.686e-009
8.12209e-012
4.31078e-011
6.64399e-009
9.3597e-012
4.06975e-011
6.60302e-009
1.03863e-011
3.85365e-011
6.56306e-009
1.12289e-011
3.65915e-011
6.52406e-009
1.19124e-011
3.48343e-011
6.48599e-009
1.24588e-011
3.32402e-011
6.44882e-009
1.28875e-011
3.17879e-011
6.41253e-009
1.3216e-011
3.04593e-011
6.37709e-009
1.34593e-011
2.92389e-011
6.34247e-009
1.36312e-011
2.81137e-011
6.30866e-009
1.3743e-011
2.70722e-011
6.27562e-009
1.38047e-011
2.61047e-011
6.24334e-009
1.38246e-011
2.52029e-011
6.21179e-009
1.38102e-011
2.43601e-011
6.18094e-009
1.37676e-011
2.35698e-011
6.15078e-009
1.37018e-011
2.28271e-011
6.12128e-009
1.36172e-011
2.2127e-011
6.09243e-009
1.35172e-011
2.14661e-011
6.06419e-009
1.34049e-011
2.08406e-011
6.03656e-009
1.32826e-011
2.02476e-011
6.00951e-009
1.31524e-011
1.96844e-011
5.98302e-009
1.3016e-011
1.91487e-011
5.95708e-009
1.28745e-011
1.86383e-011
5.93167e-009
1.27291e-011
1.81514e-011
5.90677e-009
1.25811e-011
1.7686e-011
5.88237e-009
1.24315e-011
1.72409e-011
5.85845e-009
1.22804e-011
1.68145e-011
5.83499e-009
1.21285e-011
1.64057e-011
5.81199e-009
1.19761e-011
1.60132e-011
5.78943e-009
1.18237e-011
1.56362e-011
5.76729e-009
1.16717e-011
1.52736e-011
5.74557e-009
1.15204e-011
1.49247e-011
5.72426e-009
1.13702e-011
1.45887e-011
5.70333e-009
1.12214e-011
1.4265e-011
5.68279e-009
1.10741e-011
1.3953e-011
5.66261e-009
1.09285e-011
1.36521e-011
5.6428e-009
1.07845e-011
1.33616e-011
5.62333e-009
1.06424e-011
1.30815e-011
5.6042e-009
1.05022e-011
1.28108e-011
5.5854e-009
1.03639e-011
1.25493e-011
5.56692e-009
1.02273e-011
1.22963e-011
5.54876e-009
1.00927e-011
1.20517e-011
5.5309e-009
9.95974e-012
1.18147e-011
5.51334e-009
9.82851e-012
1.15853e-011
5.49606e-009
9.69872e-012
1.13627e-011
5.47907e-009
9.57057e-012
1.1147e-011
5.46236e-009
9.44379e-012
1.09375e-011
5.44591e-009
9.31837e-012
1.07342e-011
5.42973e-009
9.19399e-012
1.05365e-011
5.41381e-009
9.07077e-012
1.03446e-011
5.39815e-009
8.94841e-012
1.01578e-011
5.38273e-009
8.82696e-012
9.97608e-012
5.36756e-009
8.70644e-012
9.7989e-012
5.35262e-009
8.58769e-012
9.62676e-012
5.33792e-009
8.47153e-012
9.45905e-012
5.32344e-009
8.36009e-012
9.29755e-012
5.30918e-009
8.25472e-012
9.13871e-012
5.29512e-009
8.164e-012
8.99742e-012
5.28126e-009
8.0723e-012
8.83057e-012
5.26751e-009
8.04555e-012
8.77936e-012
5.25417e-009
7.81656e-012
8.36053e-012
5.24038e-009
8.08975e-012
8.90292e-012
5.23001e-009
6.17882e-012
5.62394e-012
8.39606e-012
1.0255e-011
3.55149e-008
3.83506e-010
2.45031e-009
3.29269e-008
1.03802e-009
3.06607e-009
3.04076e-008
1.27905e-009
3.00677e-009
2.80403e-008
1.35241e-009
2.82184e-009
2.58023e-008
1.34036e-009
2.58329e-009
2.36997e-008
1.23796e-009
2.30264e-009
2.17645e-008
1.07676e-009
2.01242e-009
2.00258e-008
9.00095e-010
1.73679e-009
1.85003e-008
7.30671e-010
1.48591e-009
1.71902e-008
5.75087e-010
1.26383e-009
1.60849e-008
4.3503e-010
1.07185e-009
1.51649e-008
3.11109e-010
9.08979e-010
1.44065e-008
2.03493e-010
7.72859e-010
1.37848e-008
1.12245e-010
6.60606e-010
1.32759e-008
3.73795e-011
5.69154e-010
1.28582e-008
-2.16705e-011
4.95352e-010
1.25132e-008
-6.64915e-011
4.36018e-010
1.2226e-008
-9.9147e-011
3.88218e-010
1.19843e-008
-1.21546e-010
3.49511e-010
1.17782e-008
-1.35492e-010
3.17879e-010
1.16e-008
-1.42675e-010
2.91683e-010
1.14433e-008
-1.4462e-010
2.69631e-010
1.13037e-008
-1.42645e-010
2.50728e-010
1.11775e-008
-1.37855e-010
2.34235e-010
1.10619e-008
-1.31149e-010
2.19609e-010
1.09552e-008
-1.2324e-010
2.06459e-010
1.08556e-008
-1.1468e-010
1.94505e-010
1.0762e-008
-1.05885e-010
1.83545e-010
1.06737e-008
-9.71554e-011
1.73434e-010
1.05898e-008
-8.87029e-011
1.64068e-010
1.051e-008
-8.06657e-011
1.55367e-010
1.04337e-008
-7.31274e-011
1.4727e-010
1.03606e-008
-6.61307e-011
1.39727e-010
1.02905e-008
-5.96865e-011
1.32696e-010
1.0223e-008
-5.37855e-011
1.2614e-010
1.01581e-008
-4.84059e-011
1.20027e-010
1.00954e-008
-4.35163e-011
1.14324e-010
1.00348e-008
-3.90815e-011
1.08998e-010
9.97625e-009
-3.50639e-011
1.04022e-010
9.91954e-009
-3.14242e-011
9.9369e-011
9.86456e-009
-2.81256e-011
9.50139e-011
9.81122e-009
-2.51338e-011
9.09329e-011
9.75942e-009
-2.24174e-011
8.71031e-011
9.70908e-009
-1.99478e-011
8.35045e-011
9.66013e-009
-1.76991e-011
8.01184e-011
9.61249e-009
-1.5648e-011
7.69289e-011
9.56609e-009
-1.37739e-011
7.392e-011
9.52089e-009
-1.20582e-011
7.10787e-011
9.47682e-009
-1.04846e-011
6.83922e-011
9.43383e-009
-9.03867e-012
6.58502e-011
9.39187e-009
-7.70759e-012
6.34418e-011
9.35091e-009
-6.4803e-012
6.11587e-011
9.31089e-009
-5.34704e-012
5.89917e-011
9.27179e-009
-4.29924e-012
5.69343e-011
9.23355e-009
-3.32935e-012
5.49785e-011
9.19616e-009
-2.43082e-012
5.31188e-011
9.15957e-009
-1.59772e-012
5.13486e-011
9.12376e-009
-8.24795e-013
4.96634e-011
9.08869e-009
-1.06713e-013
4.80576e-011
9.05434e-009
5.60597e-013
4.65275e-011
9.02068e-009
1.17974e-012
4.50673e-011
8.98769e-009
1.75373e-012
4.36741e-011
8.95535e-009
2.28576e-012
4.23429e-011
8.92363e-009
2.77884e-012
4.10711e-011
8.89252e-009
3.2358e-012
3.98544e-011
8.862e-009
3.65916e-012
3.86909e-011
8.83205e-009
4.05127e-012
3.7577e-011
8.80265e-009
4.41434e-012
3.6511e-011
8.77379e-009
4.75039e-012
3.54895e-011
8.74544e-009
5.06126e-012
3.45112e-011
8.7176e-009
5.34861e-012
3.35731e-011
8.69025e-009
5.61391e-012
3.26736e-011
8.66337e-009
5.85857e-012
3.18099e-011
8.63695e-009
6.08396e-012
3.09815e-011
8.61098e-009
6.29128e-012
3.01855e-011
8.58545e-009
6.48155e-012
2.94211e-011
8.56034e-009
6.65575e-012
2.86858e-011
8.53564e-009
6.81481e-012
2.79793e-011
8.51135e-009
6.95951e-012
2.72992e-011
8.48745e-009
7.09052e-012
2.6645e-011
8.46393e-009
7.2085e-012
2.60145e-011
8.44078e-009
7.3141e-012
2.54076e-011
8.418e-009
7.40784e-012
2.48223e-011
8.39557e-009
7.49011e-012
2.42585e-011
8.37349e-009
7.56128e-012
2.37141e-011
8.35176e-009
7.62175e-012
2.31894e-011
8.33036e-009
7.67186e-012
2.26823e-011
8.30928e-009
7.71206e-012
2.21928e-011
8.28853e-009
7.74315e-012
2.17191e-011
8.2681e-009
7.76641e-012
2.12621e-011
8.24797e-009
7.784e-012
2.08204e-011
8.22814e-009
7.79868e-012
2.03961e-011
8.2086e-009
7.81611e-012
1.99856e-011
8.18932e-009
7.84124e-012
1.96056e-011
8.17031e-009
7.88411e-012
1.92103e-011
8.15144e-009
7.95546e-012
1.89618e-011
8.13301e-009
8.00145e-012
1.82528e-011
8.11409e-009
8.21724e-012
1.88023e-011
8.09896e-009
7.64541e-012
1.36682e-011
8.83328e-012
2.12255e-011
3.99181e-008
2.6356e-010
2.77984e-009
3.67264e-008
7.32677e-010
3.49697e-009
3.36028e-008
9.70415e-010
3.43228e-009
3.06908e-008
1.04928e-009
3.21508e-009
2.80553e-008
1.04887e-009
2.92699e-009
2.5728e-008
9.85928e-010
2.57931e-009
2.37107e-008
8.76699e-010
2.21737e-009
2.19852e-008
7.47522e-010
1.87797e-009
2.05252e-008
6.15363e-010
1.57534e-009
1.93021e-008
4.85824e-010
1.31242e-009
1.82875e-008
3.61048e-010
1.08859e-009
1.74538e-008
2.43513e-010
9.01302e-010
1.67744e-008
1.35957e-010
7.46911e-010
1.62242e-008
4.08807e-011
6.21474e-010
1.57803e-008
-3.98361e-011
5.21024e-010
1.54226e-008
-1.05533e-010
4.41579e-010
1.51332e-008
-1.56489e-010
3.7939e-010
1.48967e-008
-1.93799e-010
3.31118e-010
1.47005e-008
-2.19144e-010
2.93845e-010
1.45344e-008
-2.34425e-010
2.65109e-010
1.43904e-008
-2.41546e-010
2.42869e-010
1.42626e-008
-2.42297e-010
2.25476e-010
1.41466e-008
-2.38271e-010
2.1163e-010
1.40392e-008
-2.30825e-010
2.0034e-010
1.39382e-008
-2.21071e-010
1.90872e-010
1.38421e-008
-2.0989e-010
1.82697e-010
1.37499e-008
-1.97964e-010
1.75437e-010
1.36609e-008
-1.85802e-010
1.68831e-010
1.35748e-008
-1.73774e-010
1.62707e-010
1.34913e-008
-1.62134e-010
1.56949e-010
1.34102e-008
-1.51047e-010
1.51486e-010
1.33314e-008
-1.40611e-010
1.46273e-010
1.32549e-008
-1.30874e-010
1.41284e-010
1.31806e-008
-1.21847e-010
1.3651e-010
1.31084e-008
-1.13516e-010
1.31942e-010
1.30383e-008
-1.0585e-010
1.27576e-010
1.29702e-008
-9.88116e-011
1.23407e-010
1.2904e-008
-9.23504e-011
1.19425e-010
1.28398e-008
-8.64173e-011
1.15622e-010
1.27773e-008
-8.09686e-011
1.12001e-010
1.27166e-008
-7.59617e-011
1.08557e-010
1.26575e-008
-7.13555e-011
1.05279e-010
1.26e-008
-6.71113e-011
1.02156e-010
1.25441e-008
-6.31934e-011
9.91773e-011
1.24896e-008
-5.95688e-011
9.63327e-011
1.24366e-008
-5.62079e-011
9.36127e-011
1.23849e-008
-5.30838e-011
9.10081e-011
1.23345e-008
-5.01728e-011
8.85111e-011
1.22854e-008
-4.74534e-011
8.61141e-011
1.22374e-008
-4.49072e-011
8.38111e-011
1.21907e-008
-4.25175e-011
8.15958e-011
1.2145e-008
-4.02699e-011
7.94632e-011
1.21004e-008
-3.81518e-011
7.7408e-011
1.20569e-008
-3.61523e-011
7.54267e-011
1.20143e-008
-3.42615e-011
7.35148e-011
1.19727e-008
-3.24711e-011
7.16691e-011
1.1932e-008
-3.07736e-011
6.98863e-011
1.18922e-008
-2.91626e-011
6.81638e-011
1.18532e-008
-2.76323e-011
6.64984e-011
1.18151e-008
-2.61777e-011
6.48876e-011
1.17777e-008
-2.47936e-011
6.33289e-011
1.17411e-008
-2.34762e-011
6.18207e-011
1.17053e-008
-2.22215e-011
6.03601e-011
1.16701e-008
-2.10261e-011
5.89453e-011
1.16357e-008
-1.98864e-011
5.75739e-011
1.16019e-008
-1.87991e-011
5.62444e-011
1.15688e-008
-1.77611e-011
5.4955e-011
1.15363e-008
-1.67702e-011
5.37053e-011
1.15043e-008
-1.58242e-011
5.24937e-011
1.1473e-008
-1.49209e-011
5.13193e-011
1.14422e-008
-1.40583e-011
5.01801e-011
1.1412e-008
-1.32345e-011
4.9075e-011
1.13823e-008
-1.24475e-011
4.80022e-011
1.13532e-008
-1.16957e-011
4.69614e-011
1.13245e-008
-1.09773e-011
4.59509e-011
1.12963e-008
-1.0291e-011
4.49699e-011
1.12686e-008
-9.63515e-012
4.40169e-011
1.12413e-008
-9.00869e-012
4.30915e-011
1.12145e-008
-8.41027e-012
4.21922e-011
1.11881e-008
-7.83904e-012
4.13184e-011
1.11621e-008
-7.29381e-012
4.04687e-011
1.11366e-008
-6.77392e-012
3.96431e-011
1.11114e-008
-6.27843e-012
3.88403e-011
1.10867e-008
-5.80692e-012
3.80597e-011
1.10623e-008
-5.35865e-012
3.73003e-011
1.10383e-008
-4.9333e-012
3.65618e-011
1.10147e-008
-4.53017e-012
3.58431e-011
1.09914e-008
-4.14884e-012
3.51437e-011
1.09685e-008
-3.78815e-012
3.44629e-011
1.09459e-008
-3.44696e-012
3.38016e-011
1.09236e-008
-3.12251e-012
3.316e-011
1.09017e-008
-2.81229e-012
3.25405e-011
1.08801e-008
-2.50764e-012
3.19431e-011
1.08588e-008
-2.20766e-012
3.13842e-011
1.08377e-008
-1.87735e-012
3.0831e-011
1.08168e-008
-1.55536e-012
3.04336e-011
1.07963e-008
-1.06701e-012
2.96077e-011
1.07751e-008
-6.95474e-013
3.00736e-011
1.07581e-008
2.66768e-013
2.43683e-011
1.22057e-012
3.32507e-011
4.50401e-008
1.74896e-010
3.1545e-009
4.12869e-008
4.96994e-010
3.98885e-009
3.76302e-008
7.03005e-010
3.92415e-009
3.4218e-008
7.92929e-010
3.66852e-009
3.11314e-008
8.09435e-010
3.32608e-009
2.843e-008
7.75344e-010
2.91188e-009
2.61273e-008
7.02472e-010
2.47682e-009
2.42022e-008
6.06741e-010
2.06586e-009
2.26171e-008
5.01831e-010
1.69865e-009
2.13283e-008
3.94408e-010
1.38032e-009
2.0291e-008
2.87452e-010
1.11095e-009
1.94628e-008
1.83676e-010
8.88009e-010
1.88056e-008
8.61158e-011
7.07034e-010
1.8286e-008
-2.36902e-012
5.62709e-010
1.78759e-008
-7.94586e-011
4.49639e-010
1.75514e-008
-1.43638e-010
3.62497e-010
1.7293e-008
-1.94427e-010
2.96396e-010
1.70846e-008
-2.32346e-010
2.46983e-010
1.69136e-008
-2.58604e-010
2.10555e-010
1.677e-008
-2.74798e-010
1.84075e-010
1.66461e-008
-2.82665e-010
1.65081e-010
1.65361e-008
-2.83921e-010
1.51598e-010
1.6436e-008
-2.80152e-010
1.42063e-010
1.63426e-008
-2.72738e-010
1.35274e-010
1.62539e-008
-2.6283e-010
1.30342e-010
1.61686e-008
-2.51355e-010
1.26625e-010
1.6086e-008
-2.39034e-010
1.23668e-010
1.60053e-008
-2.26406e-010
1.21147e-010
1.59265e-008
-2.13862e-010
1.18848e-010
1.58494e-008
-2.01679e-010
1.16647e-010
1.57739e-008
-1.90038e-010
1.14467e-010
1.57001e-008
-1.79046e-010
1.12267e-010
1.5628e-008
-1.68757e-010
1.10035e-010
1.55576e-008
-1.59185e-010
1.07772e-010
1.5489e-008
-1.50316e-010
1.0549e-010
1.54221e-008
-1.4212e-010
1.03203e-010
1.53569e-008
-1.34555e-010
1.00926e-010
1.52935e-008
-1.27576e-010
9.86819e-011
1.52317e-008
-1.21135e-010
9.64814e-011
1.51716e-008
-1.15182e-010
9.43244e-011
1.51131e-008
-1.09673e-010
9.22147e-011
1.50561e-008
-1.04563e-010
9.01574e-011
1.50007e-008
-9.98138e-011
8.81556e-011
1.49466e-008
-9.53896e-011
8.6211e-011
1.4894e-008
-9.12583e-011
8.43244e-011
1.48427e-008
-8.73913e-011
8.24952e-011
1.47926e-008
-8.3763e-011
8.07228e-011
1.47438e-008
-8.03506e-011
7.90051e-011
1.46961e-008
-7.71339e-011
7.7341e-011
1.46496e-008
-7.40951e-011
7.57285e-011
1.46042e-008
-7.12184e-011
7.4166e-011
1.45597e-008
-6.84899e-011
7.26512e-011
1.45163e-008
-6.58975e-011
7.11826e-011
1.44739e-008
-6.34303e-011
6.97583e-011
1.44323e-008
-6.10791e-011
6.8377e-011
1.43917e-008
-5.88354e-011
6.70367e-011
1.43519e-008
-5.6692e-011
6.57361e-011
1.43129e-008
-5.46424e-011
6.44738e-011
1.42747e-008
-5.26809e-011
6.32483e-011
1.42373e-008
-5.08022e-011
6.20576e-011
1.42006e-008
-4.90019e-011
6.09006e-011
1.41646e-008
-4.72754e-011
5.97758e-011
1.41294e-008
-4.56191e-011
5.86816e-011
1.40947e-008
-4.40291e-011
5.76167e-011
1.40608e-008
-4.25024e-011
5.65806e-011
1.40275e-008
-4.10358e-011
5.55731e-011
1.39947e-008
-3.96266e-011
5.45932e-011
1.39626e-008
-3.82719e-011
5.36387e-011
1.3931e-008
-3.69693e-011
5.27089e-011
1.39e-008
-3.57164e-011
5.18027e-011
1.38696e-008
-3.4511e-011
5.09192e-011
1.38396e-008
-3.3351e-011
5.00573e-011
1.38102e-008
-3.22343e-011
4.92166e-011
1.37813e-008
-3.11592e-011
4.83966e-011
1.37528e-008
-3.01239e-011
4.75967e-011
1.37249e-008
-2.91268e-011
4.68159e-011
1.36973e-008
-2.81664e-011
4.60539e-011
1.36703e-008
-2.72414e-011
4.531e-011
1.36436e-008
-2.63506e-011
4.45837e-011
1.36174e-008
-2.54927e-011
4.38741e-011
1.35916e-008
-2.46668e-011
4.31809e-011
1.35662e-008
-2.3872e-011
4.25035e-011
1.35412e-008
-2.31075e-011
4.18415e-011
1.35166e-008
-2.23728e-011
4.11942e-011
1.34923e-008
-2.16674e-011
4.05611e-011
1.34685e-008
-2.09908e-011
3.99419e-011
1.34449e-008
-2.03428e-011
3.93361e-011
1.34218e-008
-1.97227e-011
3.87434e-011
1.3399e-008
-1.91303e-011
3.81641e-011
1.33765e-008
-1.85645e-011
3.75994e-011
1.33543e-008
-1.80236e-011
3.70512e-011
1.33325e-008
-1.75057e-011
3.65228e-011
1.3311e-008
-1.70033e-011
3.60206e-011
1.32898e-008
-1.65166e-011
3.55579e-011
1.32688e-008
-1.60061e-011
3.51373e-011
1.32479e-008
-1.55173e-011
3.48495e-011
1.32273e-008
-1.48102e-011
3.43692e-011
1.3206e-008
-1.42661e-011
3.48352e-011
1.31884e-008
-1.26696e-011
3.05491e-011
-1.11299e-011
3.87214e-011
5.08425e-008
1.08608e-010
3.5754e-009
4.64922e-008
3.14709e-010
4.5325e-009
4.22648e-008
4.6503e-010
4.46544e-009
3.83383e-008
5.46824e-010
4.17256e-009
3.47944e-008
5.72785e-010
3.78058e-009
3.17038e-008
5.59097e-010
3.30681e-009
2.90862e-008
5.15812e-010
2.80411e-009
2.69179e-008
4.51906e-010
2.32316e-009
2.51541e-008
3.7601e-010
1.88964e-009
2.3742e-008
2.93977e-010
1.5126e-009
2.26263e-008
2.09266e-010
1.19395e-009
2.17536e-008
1.24739e-010
9.31635e-010
2.10755e-008
4.3472e-011
7.20724e-010
2.05498e-008
-3.15896e-011
5.54726e-010
2.01417e-008
-9.81274e-011
4.26698e-010
1.98227e-008
-1.54436e-010
3.29678e-010
1.95707e-008
-1.99702e-010
2.57339e-010
1.93682e-008
-2.33958e-010
2.04179e-010
1.9202e-008
-2.57925e-010
1.65654e-010
1.90619e-008
-2.7279e-010
1.38164e-010
1.89405e-008
-2.79973e-010
1.18861e-010
1.88321e-008
-2.80949e-010
1.05498e-010
1.87327e-008
-2.77121e-010
9.63273e-011
1.86397e-008
-2.69753e-010
9.00303e-011
1.8551e-008
-2.5993e-010
8.56714e-011
1.84655e-008
-2.48552e-010
8.25688e-011
1.83824e-008
-2.36328e-010
8.02525e-011
1.83013e-008
-2.23803e-010
7.8408e-011
1.82219e-008
-2.11374e-010
7.68168e-011
1.81442e-008
-1.99319e-010
7.5333e-011
1.80681e-008
-1.87821e-010
7.38678e-011
1.79937e-008
-1.76987e-010
7.23809e-011
1.7921e-008
-1.66871e-010
7.08563e-011
1.78501e-008
-1.57486e-010
6.92985e-011
1.77809e-008
-1.48817e-010
6.77196e-011
1.77136e-008
-1.4083e-010
6.61347e-011
1.7648e-008
-1.33483e-010
6.45616e-011
1.75841e-008
-1.26725e-010
6.30139e-011
1.7522e-008
-1.20506e-010
6.15038e-011
1.74616e-008
-1.14775e-010
6.00366e-011
1.74027e-008
-1.09484e-010
5.86199e-011
1.73455e-008
-1.0459e-010
5.72563e-011
1.72898e-008
-1.00052e-010
5.5948e-011
1.72355e-008
-9.58327e-011
5.46939e-011
1.71826e-008
-9.19006e-011
5.34924e-011
1.71311e-008
-8.82264e-011
5.2341e-011
1.70809e-008
-8.47845e-011
5.12377e-011
1.70319e-008
-8.15526e-011
5.01807e-011
1.69841e-008
-7.85109e-011
4.9168e-011
1.69375e-008
-7.56418e-011
4.81977e-011
1.68919e-008
-7.29299e-011
4.72675e-011
1.68474e-008
-7.03616e-011
4.63751e-011
1.6804e-008
-6.79248e-011
4.55188e-011
1.67615e-008
-6.56089e-011
4.46966e-011
1.67199e-008
-6.34042e-011
4.39068e-011
1.66793e-008
-6.13026e-011
4.31472e-011
1.66395e-008
-5.92966e-011
4.24167e-011
1.66005e-008
-5.73796e-011
4.17131e-011
1.65624e-008
-5.55458e-011
4.10351e-011
1.6525e-008
-5.37899e-011
4.03804e-011
1.64884e-008
-5.21071e-011
3.97477e-011
1.64524e-008
-5.04933e-011
3.91353e-011
1.64172e-008
-4.89444e-011
3.8542e-011
1.63827e-008
-4.74571e-011
3.79665e-011
1.63488e-008
-4.6028e-011
3.74079e-011
1.63156e-008
-4.46542e-011
3.68655e-011
1.62829e-008
-4.33329e-011
3.63383e-011
1.62509e-008
-4.20617e-011
3.58251e-011
1.62194e-008
-4.08381e-011
3.53252e-011
1.61886e-008
-3.96598e-011
3.48382e-011
1.61582e-008
-3.85249e-011
3.43631e-011
1.61284e-008
-3.74314e-011
3.38994e-011
1.60991e-008
-3.63774e-011
3.34467e-011
1.60703e-008
-3.53615e-011
3.30049e-011
1.6042e-008
-3.43819e-011
3.25737e-011
1.60142e-008
-3.34375e-011
3.21525e-011
1.59868e-008
-3.25267e-011
3.1741e-011
1.59599e-008
-3.16485e-011
3.1339e-011
1.59334e-008
-3.08017e-011
3.0946e-011
1.59073e-008
-2.99855e-011
3.05616e-011
1.58817e-008
-2.91989e-011
3.01854e-011
1.58564e-008
-2.84414e-011
2.98174e-011
1.58316e-008
-2.77123e-011
2.94571e-011
1.58071e-008
-2.70113e-011
2.9104e-011
1.5783e-008
-2.63383e-011
2.87579e-011
1.57593e-008
-2.56931e-011
2.84188e-011
1.5736e-008
-2.50759e-011
2.80865e-011
1.5713e-008
-2.4487e-011
2.77611e-011
1.56903e-008
-2.39266e-011
2.74434e-011
1.5668e-008
-2.33953e-011
2.71353e-011
1.56461e-008
-2.28931e-011
2.68403e-011
1.56244e-008
-2.24203e-011
2.6563e-011
1.56031e-008
-2.19747e-011
2.63167e-011
1.5582e-008
-2.15568e-011
2.61115e-011
1.55612e-008
-2.11499e-011
2.59959e-011
1.55405e-008
-2.07671e-011
2.59832e-011
1.55199e-008
-2.03013e-011
2.61093e-011
1.54988e-008
-1.98876e-011
2.66957e-011
1.54806e-008
-1.90693e-011
2.46483e-011
-1.82131e-011
3.14499e-011
5.74121e-008
5.66883e-011
4.04794e-009
5.24313e-008
1.54292e-010
5.14119e-009
4.75776e-008
2.40294e-010
5.07839e-009
4.30675e-008
2.99319e-010
4.75762e-009
3.89951e-008
3.23732e-010
4.32151e-009
3.54464e-008
3.20077e-010
3.78764e-009
3.24522e-008
2.96189e-010
3.21376e-009
2.99882e-008
2.56989e-010
2.65884e-009
2.80016e-008
2.06648e-010
2.15602e-009
2.6428e-008
1.49035e-010
1.7186e-009
2.52002e-008
8.72222e-011
1.34996e-009
2.42533e-008
2.37162e-011
1.04791e-009
2.3529e-008
-3.89582e-011
8.06689e-010
2.29769e-008
-9.81226e-011
6.18489e-010
2.25552e-008
-1.51368e-010
4.74829e-010
2.22302e-008
-1.9692e-010
3.67399e-010
2.19758e-008
-2.33789e-010
2.88541e-010
2.1772e-008
-2.61736e-010
2.3163e-010
2.16041e-008
-2.81148e-010
1.91244e-010
2.14613e-008
-2.92856e-010
1.63076e-010
2.13356e-008
-2.9795e-010
1.43792e-010
2.12215e-008
-2.97625e-010
1.30798e-010
2.11153e-008
-2.93052e-010
1.22148e-010
2.10144e-008
-2.85307e-010
1.16367e-010
2.09173e-008
-2.75329e-010
1.12378e-010
2.08231e-008
-2.63908e-010
1.09436e-010
2.07313e-008
-2.51689e-010
1.07041e-010
2.06417e-008
-2.3917e-010
1.04888e-010
2.05542e-008
-2.26724e-010
1.02783e-010
2.04688e-008
-2.14609e-010
1.00619e-010
2.03856e-008
-2.03001e-010
9.83418e-011
2.03048e-008
-1.92003e-010
9.59386e-011
2.02262e-008
-1.8167e-010
9.34256e-011
2.015e-008
-1.72018e-010
9.08266e-011
2.00761e-008
-1.63037e-010
8.81803e-011
2.00045e-008
-1.547e-010
8.55147e-011
1.99352e-008
-1.46968e-010
8.28655e-011
1.9868e-008
-1.39798e-010
8.02542e-011
1.98029e-008
-1.33146e-010
7.7704e-011
1.97399e-008
-1.26966e-010
7.52271e-011
1.96788e-008
-1.21217e-010
7.28337e-011
1.96195e-008
-1.15857e-010
7.0529e-011
1.95619e-008
-1.10852e-010
6.83143e-011
1.9506e-008
-1.06168e-010
6.61914e-011
1.94517e-008
-1.01777e-010
6.41584e-011
1.93989e-008
-9.76525e-011
6.22153e-011
1.93476e-008
-9.37726e-011
6.03581e-011
1.92975e-008
-9.01163e-011
5.85837e-011
1.92488e-008
-8.66656e-011
5.68891e-011
1.92013e-008
-8.3404e-011
5.5271e-011
1.9155e-008
-8.0317e-011
5.37271e-011
1.91098e-008
-7.73915e-011
5.22533e-011
1.90657e-008
-7.46157e-011
5.08484e-011
1.90226e-008
-7.1979e-011
4.9508e-011
1.89804e-008
-6.94715e-011
4.82311e-011
1.89392e-008
-6.70848e-011
4.7013e-011
1.88989e-008
-6.48109e-011
4.58526e-011
1.88595e-008
-6.26427e-011
4.47459e-011
1.88208e-008
-6.05737e-011
4.36909e-011
1.87829e-008
-5.85981e-011
4.26838e-011
1.87458e-008
-5.67104e-011
4.17224e-011
1.87094e-008
-5.49056e-011
4.08037e-011
1.86738e-008
-5.31793e-011
3.99254e-011
1.86387e-008
-5.15272e-011
3.90849e-011
1.86044e-008
-4.99454e-011
3.82805e-011
1.85707e-008
-4.84304e-011
3.75098e-011
1.85375e-008
-4.69787e-011
3.67713e-011
1.8505e-008
-4.55872e-011
3.60625e-011
1.8473e-008
-4.42529e-011
3.53822e-011
1.84416e-008
-4.29729e-011
3.47285e-011
1.84107e-008
-4.17447e-011
3.41002e-011
1.83804e-008
-4.0566e-011
3.34955e-011
1.83505e-008
-3.94343e-011
3.29139e-011
1.83212e-008
-3.83476e-011
3.23537e-011
1.82923e-008
-3.73041e-011
3.18145e-011
1.82639e-008
-3.63018e-011
3.12945e-011
1.82359e-008
-3.5339e-011
3.07933e-011
1.82084e-008
-3.44143e-011
3.03095e-011
1.81812e-008
-3.35261e-011
2.98428e-011
1.81545e-008
-3.26733e-011
2.93914e-011
1.81283e-008
-3.18546e-011
2.89552e-011
1.81024e-008
-3.10693e-011
2.85329e-011
1.80768e-008
-3.03165e-011
2.81243e-011
1.80517e-008
-2.95957e-011
2.77281e-011
1.80269e-008
-2.89067e-011
2.7344e-011
1.80025e-008
-2.82495e-011
2.69711e-011
1.79785e-008
-2.76244e-011
2.66095e-011
1.79548e-008
-2.70322e-011
2.62586e-011
1.79314e-008
-2.6474e-011
2.59197e-011
1.79084e-008
-2.59517e-011
2.55944e-011
1.78857e-008
-2.54679e-011
2.52873e-011
1.78633e-008
-2.50257e-011
2.50033e-011
1.78412e-008
-2.46318e-011
2.47608e-011
1.78194e-008
-2.42872e-011
2.45684e-011
1.77978e-008
-2.40168e-011
2.45034e-011
1.77762e-008
-2.37851e-011
2.45393e-011
1.77548e-008
-2.37372e-011
2.49186e-011
1.77329e-008
-2.35419e-011
2.55191e-011
1.77134e-008
-2.40228e-011
2.45539e-011
-2.32471e-011
3.05346e-011
6.48395e-008
1.8986e-011
4.57905e-009
5.91744e-008
4.35195e-012
5.81493e-009
5.36435e-008
3.26178e-011
5.73863e-009
4.85138e-008
6.35817e-011
5.36543e-009
4.38977e-008
8.07927e-011
4.85901e-009
3.98894e-008
8.67983e-011
4.24148e-009
3.65218e-008
8.51424e-011
3.57856e-009
3.37656e-008
7.57259e-011
2.9375e-009
3.15569e-008
5.79573e-011
2.35741e-009
2.9819e-008
3.2356e-011
1.85466e-009
2.84732e-008
2.6269e-014
1.43306e-009
2.74448e-008
-3.74845e-011
1.08961e-009
2.66664e-008
-7.8003e-011
8.17388e-010
2.60799e-008
-1.1897e-010
6.0719e-010
2.56373e-008
-1.57822e-010
4.48955e-010
2.53e-008
-1.92437e-010
3.32793e-010
2.50381e-008
-2.21356e-010
2.49575e-010
2.48288e-008
-2.43853e-010
1.91438e-010
2.46557e-008
-2.59844e-010
1.51955e-010
2.45067e-008
-2.69739e-010
1.26064e-010
2.43732e-008
-2.74283e-010
1.09883e-010
2.42496e-008
-2.74374e-010
1.00415e-010
2.4132e-008
-2.70914e-010
9.5404e-011
2.40182e-008
-2.64737e-010
9.31546e-011
2.39069e-008
-2.56599e-010
9.24673e-011
2.37975e-008
-2.47153e-010
9.25416e-011
2.36897e-008
-2.36949e-010
9.28537e-011
2.35838e-008
-2.26419e-010
9.31021e-011
2.34798e-008
-2.15883e-010
9.31062e-011
2.3378e-008
-2.05564e-010
9.27929e-011
2.32785e-008
-1.9561e-010
9.21411e-011
2.31815e-008
-1.86112e-010
9.11688e-011
2.30871e-008
-1.7712e-010
8.9924e-011
2.29953e-008
-1.68651e-010
8.84536e-011
2.29062e-008
-1.607e-010
8.68217e-011
2.28197e-008
-1.53251e-010
8.50718e-011
2.27358e-008
-1.46277e-010
8.32556e-011
2.26543e-008
-1.39747e-010
8.14041e-011
2.25753e-008