/*--------------------------------*- C++ -*----------------------------------*\
| =========                 |                                                 |
| \\      /  F ield         | OpenFOAM: The Open Source CFD Toolbox           |
|  \\    /   O peration     | Version:  5.x                                   |
|   \\  /    A nd           | Web:      www.OpenFOAM.org                      |
|    \\/     M anipulation  |                                                 |
\*---------------------------------------------------------------------------*/
/*   Windows 32 and 64 bit porting by blueCAPE: http://www.bluecape.com.pt   *\
|  Based on Windows porting (2.0.x v4) by Symscape: http://www.symscape.com   |
\*---------------------------------------------------------------------------*/
FoamFile
{
    version     2.0;
    format      ascii;
    class       volVectorField;
    location    "50";
    object      U;
}
// * * * * * * * * * * * * * * * * * * * * * * * * * * * * * * * * * * * * * //

dimensions      [0 1 -1 0 0 0 0];

internalField   nonuniform List<vector> 
10000
(
(9.21827 0.142611 0.142611)
(7.91792 0.263411 0.263411)
(6.54731 0.261149 0.26115)
(5.18107 0.207071 0.207072)
(4.06816 0.139852 0.139852)
(3.28096 0.0811068 0.0811044)
(2.73912 0.0418363 0.041833)
(2.35196 0.0215459 0.0215445)
(2.06428 0.0134943 0.0134952)
(1.84191 0.0109901 0.0109917)
(1.66277 0.00994259 0.00994393)
(1.51549 0.00869647 0.0086974)
(1.39536 0.00705535 0.0070561)
(1.29946 0.00534847 0.0053493)
(1.22452 0.00386841 0.00386952)
(1.16696 0.00272287 0.00272441)
(1.12328 0.00190069 0.00190263)
(1.09036 0.00134498 0.00134703)
(1.06555 0.000990078 0.000991763)
(1.04672 0.000774217 0.000775095)
(1.0322 0.000648475 0.000648301)
(1.02072 0.000577927 0.000576732)
(1.01135 0.000539232 0.000537286)
(1.00339 0.000517533 0.000515238)
(0.996364 0.000503794 0.000501579)
(0.989928 0.000492664 0.000490894)
(0.983851 0.000481193 0.000480114)
(0.977981 0.000468121 0.000467831)
(0.972224 0.000453201 0.000453646)
(0.966523 0.00043692 0.000437925)
(0.960849 0.000419876 0.000421195)
(0.95519 0.000402787 0.000404161)
(0.949543 0.000386122 0.000387323)
(0.943913 0.000370361 0.000371215)
(0.938306 0.000355747 0.000356148)
(0.932732 0.000342353 0.000342268)
(0.9272 0.000330176 0.000329645)
(0.92172 0.000319151 0.000318266)
(0.9163 0.00030918 0.000308072)
(0.910948 0.000300198 0.000299003)
(0.905668 0.000292102 0.000290951)
(0.900467 0.000284776 0.000283775)
(0.895347 0.000278092 0.000277318)
(0.890311 0.00027198 0.000271477)
(0.885361 0.000266355 0.000266132)
(0.880498 0.000261187 0.00026122)
(0.875722 0.000256387 0.000256633)
(0.871034 0.000251924 0.000252331)
(0.866432 0.000247733 0.000248245)
(0.861917 0.000243808 0.00024437)
(0.857487 0.000240085 0.000240652)
(0.85314 0.000236544 0.000237082)
(0.848876 0.000233133 0.00023362)
(0.844692 0.000229851 0.000230276)
(0.840588 0.000226655 0.000227016)
(0.836561 0.000223538 0.000223841)
(0.83261 0.000220471 0.000220722)
(0.828733 0.00021746 0.00021767)
(0.824929 0.000214468 0.000214645)
(0.821195 0.000211506 0.000211657)
(0.817531 0.00020857 0.000208699)
(0.813934 0.000205681 0.000205787)
(0.810403 0.000202803 0.000202885)
(0.806936 0.000199952 0.000200006)
(0.803532 0.00019711 0.000197135)
(0.800189 0.00019431 0.000194303)
(0.796906 0.000191524 0.000191488)
(0.793682 0.000188774 0.000188714)
(0.790515 0.000186039 0.000185961)
(0.787403 0.000183353 0.00018326)
(0.784346 0.000180684 0.000180581)
(0.781342 0.000178056 0.000177945)
(0.778389 0.000175451 0.000175333)
(0.775486 0.000172906 0.000172781)
(0.772633 0.00017039 0.000170258)
(0.769827 0.00016792 0.000167784)
(0.767069 0.000165468 0.000165334)
(0.764355 0.000163069 0.00016294)
(0.761686 0.000160684 0.000160566)
(0.759061 0.000158334 0.000158233)
(0.756478 0.000155992 0.000155913)
(0.753937 0.000153699 0.000153642)
(0.751437 0.00015142 0.000151384)
(0.748976 0.000149181 0.000149164)
(0.746555 0.000146954 0.000146953)
(0.744173 0.000144779 0.000144785)
(0.741828 0.000142613 0.000142621)
(0.73952 0.000140484 0.000140489)
(0.737249 0.000138367 0.000138368)
(0.735014 0.000136334 0.000136329)
(0.732814 0.000134333 0.000134325)
(0.730647 0.000132567 0.000132559)
(0.728514 0.000130618 0.000130616)
(0.726405 0.000130046 0.000130053)
(0.724341 0.00012618 0.000126201)
(0.722249 0.00013304 0.000133073)
(0.720331 0.00010572 0.000105758)
(0.718067 0.000162796 0.000162862)
(0.716956 -4.77878e-005 -4.77382e-005)
(0.71436 0.000268952 0.000269015)
(9.75175 0.213951 0.152349)
(9.37557 0.410488 0.308897)
(8.77828 0.446071 0.344098)
(7.95951 0.420662 0.319242)
(7.09243 0.366104 0.266356)
(6.2862 0.295758 0.204265)
(5.57004 0.225975 0.147104)
(4.9499 0.168187 0.101954)
(4.42813 0.125191 0.0694633)
(3.99912 0.0946972 0.0472418)
(3.64986 0.0730374 0.0323643)
(3.36595 0.056956 0.0223901)
(3.13528 0.0442827 0.0156228)
(2.94819 0.0339247 0.0110241)
(2.79675 0.025439 0.00797518)
(2.67429 0.0186126 0.00605668)
(2.5752 0.0132713 0.00493643)
(2.4948 0.00922998 0.00434229)
(2.42918 0.00627943 0.004059)
(2.3752 0.00420954 0.00393676)
(2.33032 0.00282724 0.00387655)
(2.29251 0.00196602 0.00381821)
(2.26019 0.00148814 0.00372977)
(2.23209 0.00128275 0.00359867)
(2.20726 0.00126347 0.00342498)
(2.18494 0.00136423 0.00321597)
(2.16457 0.00153558 0.00298215)
(2.14573 0.00174162 0.00273482)
(2.12808 0.00195702 0.00248429)
(2.11138 0.00216517 0.00223935)
(2.09547 0.00235547 0.00200649)
(2.0802 0.00252224 0.00179039)
(2.06548 0.00266329 0.00159385)
(2.05123 0.00277815 0.00141829)
(2.0374 0.00286715 0.0012635)
(2.02396 0.00293183 0.00112861)
(2.01088 0.00297471 0.00101221)
(1.99812 0.00299846 0.000912645)
(1.98569 0.00300581 0.000828009)
(1.97356 0.00299942 0.000756485)
(1.96173 0.00298172 0.000696297)
(1.95018 0.00295476 0.000645826)
(1.9389 0.00292029 0.000603525)
(1.9279 0.00287986 0.000568098)
(1.91714 0.0028348 0.000538397)
(1.90665 0.00278631 0.000513552)
(1.89639 0.00273533 0.000492715)
(1.88637 0.00268268 0.000475247)
(1.87658 0.00262902 0.000460543)
(1.86701 0.00257494 0.000448214)
(1.85766 0.00252086 0.000437791)
(1.84852 0.00246714 0.000428946)
(1.83958 0.00241403 0.000421325)
(1.83083 0.00236174 0.000414751)
(1.82227 0.00231042 0.000408957)
(1.8139 0.00226019 0.000403791)
(1.80571 0.00221112 0.00039906)
(1.79768 0.00216327 0.000394713)
(1.78982 0.00211663 0.000390606)
(1.78213 0.00207121 0.000386683)
(1.77459 0.00202706 0.000382824)
(1.7672 0.00198419 0.000379042)
(1.75995 0.00194258 0.000375252)
(1.75285 0.00190218 0.000371472)
(1.74589 0.00186295 0.000367658)
(1.73906 0.00182489 0.000363892)
(1.73236 0.00178794 0.000360115)
(1.72579 0.0017521 0.000356346)
(1.71934 0.00171733 0.000352506)
(1.71301 0.00168363 0.00034865)
(1.70679 0.00165096 0.000344715)
(1.70069 0.00161928 0.000340753)
(1.69469 0.00158853 0.00033674)
(1.68881 0.00155873 0.000332788)
(1.68302 0.00152982 0.000328854)
(1.67734 0.00150176 0.000324969)
(1.67175 0.0014745 0.000321061)
(1.66626 0.00144802 0.000317201)
(1.66086 0.00142227 0.00031332)
(1.65555 0.00139721 0.000309449)
(1.65033 0.00137278 0.000305526)
(1.64519 0.00134899 0.000301638)
(1.64014 0.00132578 0.000297743)
(1.63517 0.00130314 0.000293895)
(1.63028 0.00128099 0.000290044)
(1.62547 0.00125935 0.000286269)
(1.62073 0.00123817 0.000282499)
(1.61607 0.00121742 0.000278767)
(1.61149 0.00119709 0.000275022)
(1.60697 0.00117729 0.000271389)
(1.60253 0.00115809 0.000267787)
(1.59816 0.0011398 0.000264481)
(1.59385 0.00112239 0.000260821)
(1.5896 0.00110755 0.000259044)
(1.58544 0.00109116 0.000252464)
(1.58125 0.00108767 0.000261789)
(1.57733 0.00104258 0.000219568)
(1.57285 0.00109826 0.000311106)
(1.5702 0.000738 -7.66844e-005)
(1.56445 0.00113341 0.000504874)
(9.61219 0.105461 0.14984)
(9.02222 0.214552 0.295442)
(8.42084 0.249292 0.320317)
(7.7667 0.262628 0.295532)
(7.13226 0.261452 0.252663)
(6.55194 0.241222 0.202768)
(6.01975 0.208506 0.153697)
(5.53265 0.17293 0.110744)
(5.09795 0.139632 0.075817)
(4.72144 0.110009 0.0488322)
(4.40222 0.0841746 0.0289529)
(4.13525 0.0619727 0.0150232)
(3.91425 0.0431995 0.0057737)
(3.73271 0.0276636 3.44505e-005)
(3.58417 0.0151754 -0.00314653)
(3.46251 0.00548014 -0.00451196)
(3.36229 -0.0017787 -0.00465263)
(3.2792 -0.00700478 -0.00403535)
(3.20967 -0.010577 -0.00301148)
(3.15079 -0.0128325 -0.00182894)
(3.10021 -0.0140594 -0.00065031)
(3.0561 -0.0145008 0.000427164)
(3.01703 -0.0143593 0.00135241)
(2.98194 -0.0138019 0.00210582)
(2.95001 -0.0129621 0.0026879)
(2.92063 -0.0119456 0.00311153)
(2.89334 -0.0108335 0.00339615)
(2.86778 -0.00968693 0.00356411)
(2.8437 -0.00855055 0.00363795)
(2.82089 -0.00745521 0.00363898)
(2.79921 -0.00642136 0.00358581)
(2.77851 -0.00546105 0.0034944)
(2.75872 -0.00458 0.00337753)
(2.73974 -0.00377974 0.00324545)
(2.7215 -0.00305935 0.00310592)
(2.70395 -0.0024155 0.00296468)
(2.68703 -0.00184304 0.00282546)
(2.67069 -0.00133622 0.00269075)
(2.65489 -0.000889048 0.00256185)
(2.63961 -0.000495426 0.00243968)
(2.6248 -0.000149434 0.00232447)
(2.61043 0.000154384 0.0022162)
(2.59649 0.000420973 0.00211449)
(2.58294 0.000654798 0.00201894)
(2.56977 0.000859832 0.00192913)
(2.55696 0.00103964 0.00184482)
(2.54449 0.00119731 0.00176565)
(2.53234 0.00133558 0.00169139)
(2.5205 0.00145683 0.00162175)
(2.50895 0.00156316 0.00155662)
(2.49769 0.00165639 0.0014957)
(2.48669 0.00173807 0.00143872)
(2.47595 0.00180955 0.00138535)
(2.46545 0.00187199 0.00133539)
(2.45519 0.00192641 0.0012885)
(2.44516 0.00197367 0.00124443)
(2.43535 0.00201452 0.00120289)
(2.42574 0.00204963 0.00116376)
(2.41634 0.00207964 0.00112679)
(2.40713 0.00210505 0.00109181)
(2.39811 0.00212624 0.00105853)
(2.38927 0.00214354 0.00102685)
(2.3806 0.00215729 0.000996552)
(2.3721 0.00216781 0.000967581)
(2.36377 0.00217541 0.000939816)
(2.35559 0.00218038 0.000913339)
(2.34757 0.00218295 0.000888059)
(2.3397 0.00218336 0.000863966)
(2.33197 0.00218182 0.000840883)
(2.32438 0.00217854 0.000818795)
(2.31693 0.0021737 0.000797518)
(2.3096 0.00216743 0.000777026)
(2.30241 0.00215987 0.000757225)
(2.29534 0.00215115 0.000738245)
(2.28839 0.00214138 0.000720029)
(2.28156 0.00213065 0.000702602)
(2.27484 0.00211902 0.000685841)
(2.26823 0.00210659 0.0006698)
(2.26173 0.00209339 0.000654352)
(2.25534 0.00207948 0.000639486)
(2.24905 0.00206489 0.000625078)
(2.24285 0.00204968 0.000611212)
(2.23676 0.00203387 0.000597806)
(2.23076 0.00201749 0.000584901)
(2.22486 0.00200053 0.0005724)
(2.21905 0.00198302 0.000560382)
(2.21332 0.00196498 0.000548736)
(2.20769 0.00194642 0.000537474)
(2.20214 0.00192743 0.000526508)
(2.19668 0.0019082 0.000516002)
(2.19129 0.001889 0.000505908)
(2.18599 0.0018703 0.00049651)
(2.18077 0.00185275 0.000487243)
(2.17562 0.00183766 0.00048032)
(2.17056 0.00182447 0.000469189)
(2.16547 0.0018206 0.0004754)
(2.1607 0.00179564 0.00042265)
(2.15523 0.00183372 0.000527886)
(2.15203 0.00160014 -8.25392e-006)
(2.14447 0.00186074 0.000814951)
(9.60256 0.0605122 0.149741)
(8.94959 0.150661 0.29661)
(8.27291 0.197429 0.321891)
(7.55491 0.216054 0.296579)
(6.87922 0.216731 0.252745)
(6.29163 0.202705 0.201332)
(5.78696 0.179264 0.150515)
(5.35118 0.152476 0.10623)
(4.97821 0.12567 0.070584)
(4.66425 0.0998494 0.0432519)
(4.40326 0.0754048 0.0231246)
(4.18802 0.0527752 0.0089278)
(4.01185 0.0324038 -0.000626693)
(3.8688 0.0146501 -0.0066989)
(3.75325 -0.000247693 -0.010228)
(3.66013 -0.0122333 -0.0119263)
(3.58502 -0.0214509 -0.0123255)
(3.524 -0.0281921 -0.0118357)
(3.47378 -0.0328039 -0.0107843)
(3.43169 -0.0356384 -0.00942405)
(3.39563 -0.0370353 -0.0079385)
(3.36399 -0.0373093 -0.00645256)
(3.33556 -0.0367391 -0.00504675)
(3.30946 -0.0355621 -0.0037695)
(3.28509 -0.0339727 -0.00264629)
(3.26201 -0.0321252 -0.00168636)
(3.23994 -0.0301391 -0.000887285)
(3.21869 -0.028104 -0.000238831)
(3.19815 -0.0260855 0.00027469)
(3.17824 -0.0241288 0.00067166)
(3.15892 -0.022264 0.000970951)
(3.14015 -0.0205089 0.00119067)
(3.12192 -0.0188726 0.00134728)
(3.10422 -0.0173578 0.00145526)
(3.08702 -0.0159625 0.00152652)
(3.07031 -0.0146815 0.00157055)
(3.05409 -0.0135083 0.00159467)
(3.03833 -0.0124348 0.0016039)
(3.02302 -0.0114529 0.00160197)
(3.00814 -0.0105546 0.00159248)
(2.99368 -0.00973246 0.00157796)
(2.97962 -0.00897951 0.00155992)
(2.96594 -0.00828906 0.00153916)
(2.95262 -0.007655 0.00151615)
(2.93966 -0.00707171 0.00149129)
(2.92704 -0.00653409 0.00146505)
(2.91474 -0.00603755 0.00143785)
(2.90276 -0.00557798 0.00141014)
(2.89107 -0.00515171 0.00138237)
(2.87968 -0.00475551 0.00135503)
(2.86856 -0.00438651 0.00132842)
(2.85771 -0.0040422 0.0013027)
(2.84711 -0.00372039 0.00127796)
(2.83677 -0.00341915 0.00125428)
(2.82665 -0.00313677 0.00123163)
(2.81677 -0.00287176 0.0012099)
(2.80711 -0.0026228 0.00118902)
(2.79765 -0.00238872 0.00116893)
(2.7884 -0.00216841 0.0011495)
(2.77935 -0.00196093 0.00113052)
(2.77049 -0.00176549 0.00111185)
(2.76181 -0.00158141 0.00109338)
(2.7533 -0.00140801 0.00107501)
(2.74497 -0.00124461 0.00105672)
(2.7368 -0.00109059 0.00103854)
(2.72879 -0.000945312 0.00102057)
(2.72093 -0.00080823 0.00100288)
(2.71322 -0.00067887 0.000985541)
(2.70566 -0.000556792 0.000968503)
(2.69823 -0.000441598 0.000951719)
(2.69094 -0.000332906 0.000935068)
(2.68378 -0.000230373 0.000918488)
(2.67675 -0.00013365 0.000901992)
(2.66983 -4.24205e-005 0.000885728)
(2.66304 4.36183e-005 0.000869778)
(2.65636 0.000124726 0.000854191)
(2.6498 0.000201158 0.000838956)
(2.64334 0.000273139 0.000824103)
(2.63699 0.000340879 0.000809573)
(2.63074 0.000404555 0.000795315)
(2.6246 0.000464345 0.000781272)
(2.61855 0.000520404 0.000767479)
(2.6126 0.000572872 0.000753919)
(2.60674 0.000621855 0.000740586)
(2.60097 0.000667458 0.000727454)
(2.59529 0.000709776 0.000714555)
(2.58969 0.000748907 0.00070186)
(2.58418 0.000784962 0.00068936)
(2.57876 0.000818127 0.000677082)
(2.57341 0.000848659 0.000665196)
(2.56815 0.00087703 0.000653807)
(2.56296 0.000903766 0.000643192)
(2.55785 0.000930251 0.000633123)
(2.55281 0.000957022 0.000625507)
(2.54785 0.00098857 0.000615302)
(2.54286 0.0010217 0.000621395)
(2.53817 0.00107 0.000574327)
(2.53275 0.00111906 0.000679176)
(2.52965 0.00116528 0.00014309)
(2.52188 0.0013511 0.000992317)
(9.59977 0.0406531 0.149825)
(8.92613 0.110292 0.298257)
(8.21811 0.152569 0.324682)
(7.47108 0.169431 0.298861)
(6.7709 0.170107 0.253418)
(6.16402 0.160144 0.199886)
(5.6489 0.143078 0.146829)
(5.21349 0.12242 0.100631)
(4.85055 0.10066 0.0636789)
(4.55376 0.0788797 0.0356379)
(4.31441 0.0575381 0.0152798)
(4.12282 0.0370815 0.0012344)
(3.97028 0.0180311 -0.00787451)
(3.84944 0.000895294 -0.0133236)
(3.75406 -0.0138896 -0.0161832)
(3.67874 -0.0260937 -0.017246)
(3.61898 -0.0356829 -0.0170861)
(3.5711 -0.0427848 -0.016133)
(3.53216 -0.0476494 -0.0147104)
(3.49986 -0.0505976 -0.0130535)
(3.47236 -0.0519742 -0.0113228)
(3.44829 -0.0521145 -0.00962184)
(3.42661 -0.051323 -0.00801527)
(3.4066 -0.0498623 -0.00654175)
(3.38776 -0.0479489 -0.00522256)
(3.36974 -0.0457548 -0.00406639)
(3.35231 -0.0434131 -0.00307281)
(3.33536 -0.0410224 -0.00223507)
(3.3188 -0.038654 -0.00154108)
(3.3026 -0.0363571 -0.000974553)
(3.28674 -0.0341639 -0.000517425)
(3.27122 -0.0320936 -0.00015192)
(3.25606 -0.0301555 0.000138658)
(3.24125 -0.0283521 0.000369105)
(3.2268 -0.0266807 0.000551856)
(3.21271 -0.0251357 0.000697003)
(3.19899 -0.0237096 0.000812365)
(3.18563 -0.0223937 0.000904507)
(3.17262 -0.0211789 0.000978206)
(3.15995 -0.0200564 0.00103615)
(3.14763 -0.019018 0.00108024)
(3.13563 -0.0180561 0.00111218)
(3.12394 -0.0171635 0.00113341)
(3.11256 -0.0163334 0.00114527)
(3.10148 -0.0155599 0.00114905)
(3.09068 -0.0148374 0.0011461)
(3.08014 -0.0141609 0.00113775)
(3.06987 -0.0135262 0.0011253)
(3.05984 -0.0129292 0.00110999)
(3.05006 -0.0123664 0.00109294)
(3.0405 -0.0118347 0.00107507)
(3.03116 -0.0113314 0.00105701)
(3.02204 -0.0108541 0.00103925)
(3.01311 -0.0104008 0.00102213)
(3.00439 -0.00996948 0.00100581)
(2.99584 -0.00955865 0.00099036)
(2.98748 -0.00916686 0.000975754)
(2.9793 -0.00879284 0.000961956)
(2.97128 -0.00843553 0.0009488)
(2.96342 -0.00809394 0.000936078)
(2.95572 -0.00776716 0.000923578)
(2.94817 -0.00745436 0.000911163)
(2.94076 -0.00715477 0.000898727)
(2.9335 -0.00686771 0.000886267)
(2.92638 -0.00659251 0.000873891)
(2.91938 -0.00632857 0.000861824)
(2.91252 -0.00607532 0.000850169)
(2.90578 -0.00583226 0.00083888)
(2.89916 -0.00559893 0.000827827)
(2.89266 -0.00537492 0.000816892)
(2.88627 -0.00515981 0.000805948)
(2.87999 -0.00495321 0.000794946)
(2.87382 -0.00475475 0.00078394)
(2.86776 -0.00456408 0.000773093)
(2.8618 -0.00438085 0.000762525)
(2.85593 -0.00420477 0.000752308)
(2.85016 -0.00403553 0.000742461)
(2.84449 -0.00387289 0.000733002)
(2.83891 -0.00371659 0.000723874)
(2.83342 -0.00356643 0.000715007)
(2.82801 -0.00342218 0.000706332)
(2.82269 -0.00328368 0.00069784)
(2.81745 -0.00315076 0.00068949)
(2.81229 -0.00302331 0.000681251)
(2.80721 -0.00290121 0.00067309)
(2.80221 -0.00278436 0.000665025)
(2.79729 -0.00267266 0.000657044)
(2.79243 -0.00256601 0.000649167)
(2.78766 -0.00246423 0.000641463)
(2.78295 -0.00236711 0.000634112)
(2.77831 -0.00227421 0.000627293)
(2.77374 -0.00218508 0.000621289)
(2.76924 -0.00209814 0.000616307)
(2.76479 -0.00201336 0.000613707)
(2.76042 -0.00192336 0.000611609)
(2.75603 -0.00183679 0.000622246)
(2.75185 -0.00171198 0.000602247)
(2.74708 -0.00161619 0.000694623)
(2.74421 -0.00135856 0.000310694)
(2.73718 -0.00106949 0.000974216)
(9.59775 0.0266139 0.149835)
(8.91039 0.0729616 0.299006)
(8.18172 0.104506 0.326015)
(7.41695 0.120601 0.300004)
(6.70487 0.125485 0.254057)
(6.08978 0.122354 0.199972)
(5.56961 0.113005 0.146131)
(5.13323 0.0993765 0.0988829)
(4.77358 0.083375 0.0608321)
(4.48366 0.066261 0.0318795)
(4.25382 0.0487645 0.0109322)
(4.07344 0.0314715 -0.0033373)
(3.93284 0.0149812 -0.0123359)
(3.82375 -0.000145472 -0.0174349)
(3.73917 -0.0134886 -0.0198176)
(3.67334 -0.0247421 -0.0203848)
(3.62161 -0.0337652 -0.0197919)
(3.58039 -0.0405884 -0.0185056)
(3.54693 -0.0453791 -0.016854)
(3.5191 -0.04839 -0.0150565)
(3.49531 -0.0499118 -0.0132525)
(3.47436 -0.0502395 -0.0115254)
(3.45538 -0.0496498 -0.00992252)
(3.43777 -0.0483883 -0.00846986)
(3.42112 -0.0466633 -0.00717757)
(3.40514 -0.0446452 -0.00604727)
(3.38966 -0.0424679 -0.0050741)
(3.37457 -0.0402324 -0.00424773)
(3.35981 -0.0380123 -0.00355454)
(3.34536 -0.0358589 -0.00297882)
(3.33121 -0.0338058 -0.00250389)
(3.31737 -0.031873 -0.00211261)
(3.30384 -0.0300699 -0.00178909)
(3.29062 -0.0283989 -0.00151926)
(3.27774 -0.026857 -0.00129158)
(3.26518 -0.025438 -0.00109713)
(3.25295 -0.0241337 -0.000929095)
(3.24105 -0.0229351 -0.000782709)
(3.22946 -0.0218329 -0.000654614)
(3.21819 -0.0208178 -0.000542794)
(3.20722 -0.0198811 -0.000445653)
(3.19654 -0.0190145 -0.000362047)
(3.18615 -0.0182107 -0.000290928)
(3.17603 -0.017463 -0.000231314)
(3.16618 -0.0167654 -0.000182109)
(3.15658 -0.0161127 -0.000141988)
(3.14722 -0.0155003 -0.000109477)
(3.1381 -0.0149242 -8.30457e-005)
(3.1292 -0.0143807 -6.12553e-005)
(3.12052 -0.0138669 -4.27664e-005)
(3.11204 -0.01338 -2.65149e-005)
(3.10376 -0.0129175 -1.16952e-005)
(3.09567 -0.0124775 2.28203e-006)
(3.08777 -0.0120581 1.58048e-005)
(3.08004 -0.0116577 2.90967e-005)
(3.07247 -0.0112748 4.22028e-005)
(3.06507 -0.0109082 5.51218e-005)
(3.05783 -0.010557 6.77415e-005)
(3.05074 -0.01022 7.98961e-005)
(3.04379 -0.00989642 9.13344e-005)
(3.03698 -0.00958553 0.000101866)
(3.03031 -0.0092866 0.000111349)
(3.02377 -0.00899901 0.000119736)
(3.01735 -0.00872219 0.000127062)
(3.01106 -0.0084556 0.000133471)
(3.00489 -0.00819879 0.000139145)
(2.99883 -0.00795132 0.000144206)
(2.99288 -0.00771278 0.000148687)
(2.98704 -0.00748276 0.000152574)
(2.9813 -0.0072609 0.000155852)
(2.97567 -0.00704684 0.000158508)
(2.97014 -0.00684025 0.000160584)
(2.9647 -0.00664083 0.00016221)
(2.95936 -0.00644828 0.000163576)
(2.9541 -0.00626235 0.00016485)
(2.94894 -0.00608279 0.00016613)
(2.94386 -0.00590938 0.000167478)
(2.93887 -0.00574191 0.00016891)
(2.93395 -0.0055802 0.000170405)
(2.92912 -0.00542409 0.000171902)
(2.92436 -0.00527342 0.00017336)
(2.91968 -0.00512808 0.000174753)
(2.91508 -0.00498797 0.000176056)
(2.91054 -0.00485304 0.000177228)
(2.90607 -0.00472322 0.000178255)
(2.90168 -0.00459849 0.000179147)
(2.89735 -0.00447886 0.000179932)
(2.89309 -0.00436431 0.000180646)
(2.88889 -0.00425484 0.000181394)
(2.88476 -0.0041504 0.000182343)
(2.88069 -0.00405084 0.000183751)
(2.87668 -0.00395602 0.000185899)
(2.87272 -0.00386496 0.000189466)
(2.86882 -0.00377777 0.000195252)
(2.86498 -0.00368884 0.000204872)
(2.86113 -0.00360412 0.000223339)
(2.85742 -0.00348892 0.000236857)
(2.85331 -0.0033941 0.000317074)
(2.85058 -0.00315574 0.000113307)
(2.8446 -0.00289235 0.000562561)
(9.59644 0.0156578 0.149786)
(8.90133 0.0426314 0.299463)
(8.16057 0.0623074 0.327329)
(7.38254 0.073614 0.302068)
(6.65828 0.0775092 0.256615)
(6.03282 0.0756764 0.202629)
(5.50487 0.0694968 0.148377)
(5.06427 0.0601343 0.100347)
(4.70413 0.0486698 0.0614857)
(4.41678 0.0359487 0.0319714)
(4.19163 0.0225593 0.0107937)
(4.01726 0.0089891 -0.00342861)
(3.88335 -0.00424082 -0.0122085)
(3.78115 -0.016592 -0.0170142)
(3.70326 -0.0275985 -0.0190899)
(3.64357 -0.0369333 -0.019373)
(3.59722 -0.0444292 -0.0185319)
(3.56052 -0.0500705 -0.0170344)
(3.5307 -0.0539615 -0.0152053)
(3.50572 -0.0562883 -0.0132645)
(3.48408 -0.0572812 -0.011354)
(3.46473 -0.0571866 -0.00955956)
(3.4469 -0.0562436 -0.00792704)
(3.43011 -0.0546701 -0.0064777)
(3.41403 -0.052656 -0.00521903)
(3.39848 -0.0503601 -0.00414897)
(3.38335 -0.0479102 -0.00325776)
(3.36858 -0.0454054 -0.00252884)
(3.35416 -0.0429192 -0.00194202)
(3.34009 -0.0405035 -0.00147501)
(3.32637 -0.0381928 -0.0011059)
(3.31301 -0.0360081 -0.000814166)
(3.30003 -0.0339601 -0.000581777)
(3.28743 -0.0320519 -0.00039417)
(3.27521 -0.0302817 -0.000239829)
(3.26336 -0.028644 -0.000110804)
(3.25189 -0.0271309 -1.31734e-006)
(3.24078 -0.0257339 9.20316e-005)
(3.23002 -0.0244435 0.000171479)
(3.2196 -0.0232505 0.000238159)
(3.20949 -0.0221461 0.00029278)
(3.19969 -0.0211219 0.000335927)
(3.19018 -0.0201704 0.00036814)
(3.18095 -0.0192847 0.000390335)
(3.17198 -0.0184587 0.000403579)
(3.16326 -0.0176869 0.000409343)
(3.15478 -0.0169644 0.000409004)
(3.14653 -0.0162867 0.000404115)
(3.13849 -0.01565 0.000396143)
(3.13066 -0.0150508 0.000386445)
(3.12302 -0.014486 0.000376138)
(3.11557 -0.0139527 0.000366)
(3.1083 -0.0134486 0.000356629)
(3.1012 -0.0129712 0.000348307)
(3.09426 -0.0125187 0.000341199)
(3.08748 -0.0120891 0.000335232)
(3.08084 -0.0116809 0.000330321)
(3.07435 -0.0112925 0.00032624)
(3.06799 -0.0109227 0.000322737)
(3.06176 -0.0105702 0.000319494)
(3.05566 -0.010234 0.000316243)
(3.04967 -0.00991293 0.000312784)
(3.04381 -0.0096062 0.000309012)
(3.03805 -0.00931294 0.000304921)
(3.0324 -0.00903236 0.000300573)
(3.02686 -0.00876378 0.000296066)
(3.02142 -0.00850653 0.000291456)
(3.01607 -0.00825999 0.000286761)
(3.01082 -0.00802358 0.000281976)
(3.00566 -0.00779676 0.000277104)
(3.00059 -0.00757907 0.000272166)
(2.9956 -0.00737003 0.000267213)
(2.9907 -0.00716924 0.000262348)
(2.98588 -0.00697631 0.00025769)
(2.98114 -0.00679088 0.000253345)
(2.97647 -0.00661263 0.000249365)
(2.97188 -0.00644124 0.000245781)
(2.96736 -0.00627645 0.000242582)
(2.96291 -0.006118 0.000239731)
(2.95853 -0.00596567 0.000237164)
(2.95422 -0.00581925 0.000234827)
(2.94997 -0.00567858 0.000232679)
(2.94579 -0.00554354 0.000230679)
(2.94166 -0.00541403 0.000228778)
(2.9376 -0.00528999 0.000226939)
(2.9336 -0.00517143 0.000225152)
(2.92965 -0.00505837 0.000223428)
(2.92576 -0.0049509 0.000221807)
(2.92193 -0.00484915 0.000220379)
(2.91815 -0.00475332 0.000219299)
(2.91443 -0.00466368 0.000218825)
(2.91076 -0.00458051 0.000219246)
(2.90714 -0.00450421 0.000221421)
(2.90356 -0.00443491 0.000225949)
(2.90003 -0.00437329 0.000236016)
(2.89651 -0.00431722 0.000253505)
(2.89308 -0.00427011 0.000278161)
(2.88933 -0.00421313 0.000348284)
(2.88671 -0.00418156 0.000223605)
(2.88118 -0.0040148 0.000546703)
(9.59532 0.00522754 0.149688)
(8.89531 0.0186777 0.299219)
(8.14822 0.0331836 0.326731)
(7.36392 0.0438978 0.300768)
(6.63554 0.0488291 0.254438)
(6.00898 0.049068 0.199583)
(5.48247 0.0461448 0.144511)
(5.04518 0.0409055 0.0957422)
(4.68977 0.0338704 0.0563294)
(4.40802 0.0255542 0.0265462)
(4.18882 0.0164359 0.00537021)
(4.02049 0.00691061 -0.00867317)
(3.89248 -0.00264471 -0.0171812)
(3.79586 -0.0118362 -0.0216753)
(3.72311 -0.0202813 -0.023431)
(3.66802 -0.0276696 -0.0234024)
(3.62567 -0.0338024 -0.0222577)
(3.59232 -0.0385998 -0.0204583)
(3.5652 -0.0420852 -0.0183273)
(3.54229 -0.0443612 -0.0160913)
(3.52216 -0.0455809 -0.0139015)
(3.50378 -0.0459196 -0.0118526)
(3.48649 -0.0455542 -0.009998)
(3.46987 -0.0446514 -0.00836375)
(3.45367 -0.0433609 -0.00695678)
(3.43778 -0.041811 -0.00576965)
(3.42213 -0.0401076 -0.00478587)
(3.40673 -0.0383329 -0.00398168)
(3.3916 -0.0365481 -0.00333064)
(3.37676 -0.0347966 -0.00280493)
(3.36225 -0.0331072 -0.00237862)
(3.34808 -0.0314979 -0.00202883)
(3.33429 -0.0299782 -0.00173637)
(3.32087 -0.0285515 -0.00148673)
(3.30784 -0.0272169 -0.00126889)
(3.29519 -0.0259708 -0.0010759)
(3.28291 -0.024808 -0.000903015)
(3.271 -0.0237224 -0.000747833)
(3.25944 -0.0227075 -0.000608946)
(3.24821 -0.0217572 -0.000485701)
(3.2373 -0.0208654 -0.00037776)
(3.22669 -0.0200268 -0.00028455)
(3.21637 -0.0192364 -0.000205521)
(3.20633 -0.0184899 -0.000139547)
(3.19656 -0.0177834 -8.54633e-005)
(3.18703 -0.0171136 -4.16609e-005)
(3.17774 -0.0164777 -6.58448e-006)
(3.16869 -0.015873 2.14614e-005)
(3.15984 -0.0152972 4.40485e-005)
(3.15121 -0.0147483 6.2532e-005)
(3.14278 -0.0142246 7.80564e-005)
(3.13454 -0.0137243 9.14173e-005)
(3.12648 -0.0132462 0.000103271)
(3.11859 -0.0127888 0.000113993)
(3.11087 -0.0123509 0.000123856)
(3.10331 -0.0119315 0.000132944)
(3.0959 -0.0115297 0.000141275)
(3.08864 -0.0111445 0.000148809)
(3.08153 -0.0107751 0.000155435)
(3.07454 -0.0104207 0.00016108)
(3.06769 -0.0100807 0.000165628)
(3.06096 -0.00975439 0.000169081)
(3.05436 -0.00944121 0.000171423)
(3.04787 -0.00914058 0.000172786)
(3.0415 -0.00885195 0.000173278)
(3.03523 -0.00857483 0.000173078)
(3.02907 -0.00830874 0.000172282)
(3.02302 -0.0080532 0.00017099)
(3.01706 -0.00780779 0.00016925)
(3.0112 -0.00757208 0.00016714)
(3.00543 -0.00734568 0.000164733)
(2.99976 -0.00712823 0.000162131)
(2.99417 -0.00691937 0.000159431)
(2.98867 -0.00671877 0.000156746)
(2.98325 -0.00652614 0.000154138)
(2.97791 -0.00634116 0.000151661)
(2.97265 -0.00616356 0.000149323)
(2.96746 -0.00599309 0.000147151)
(2.96235 -0.00582952 0.000145124)
(2.95731 -0.00567262 0.000143247)
(2.95234 -0.00552221 0.000141474)
(2.94745 -0.00537815 0.000139807)
(2.94262 -0.00524031 0.000138193)
(2.93785 -0.00510862 0.000136636)
(2.93315 -0.00498305 0.000135088)
(2.92851 -0.00486363 0.000133582)
(2.92393 -0.00475048 0.0001321)
(2.91942 -0.00464378 0.000130716)
(2.91496 -0.00454386 0.000129478)
(2.91056 -0.00445119 0.000128557)
(2.90622 -0.00436658 0.000128136)
(2.90193 -0.00429087 0.000128558)
(2.8977 -0.00422615 0.000130372)
(2.89351 -0.00417279 0.000134633)
(2.88938 -0.00413917 0.000142271)
(2.88525 -0.00411489 0.000160343)
(2.88127 -0.00414899 0.00016827)
(2.87683 -0.00414901 0.000257359)
(2.87401 -0.00438108 5.29481e-006)
(2.86769 -0.00443501 0.00052739)
(9.60677 -0.0201402 0.149836)
(8.9364 -0.042571 0.301092)
(8.20782 -0.0474869 0.331527)
(7.42671 -0.04478 0.308181)
(6.69215 -0.0405757 0.263405)
(6.05494 -0.0362715 0.209205)
(5.51512 -0.0321539 0.154112)
(5.0633 -0.0289583 0.104724)
(4.69427 -0.0274881 0.0642741)
(4.40165 -0.0281215 0.033353)
(4.17512 -0.0307817 0.0112409)
(4.00271 -0.0350631 -0.00341455)
(3.87337 -0.0403898 -0.0122518)
(3.77749 -0.0461236 -0.0168975)
(3.70682 -0.0516715 -0.0187187)
(3.65446 -0.0565625 -0.0187302)
(3.61492 -0.0604842 -0.0176415)
(3.58408 -0.063284 -0.0159373)
(3.55893 -0.0649425 -0.0139497)
(3.53735 -0.0655438 -0.011903)
(3.51788 -0.0652389 -0.00993872)
(3.49956 -0.0641982 -0.0081425)
(3.48179 -0.0625824 -0.00655822)
(3.46423 -0.0605366 -0.00520302)
(3.44671 -0.0581919 -0.00407443)
(3.42917 -0.0556651 -0.00315612)
(3.41162 -0.0530565 -0.0024238)
(3.39411 -0.050443 -0.00184793)
(3.37669 -0.0478798 -0.00139915)
(3.35941 -0.0454041 -0.00104895)
(3.34232 -0.0430395 -0.000772466)
(3.32547 -0.0407997 -0.000549269)
(3.30887 -0.0386905 -0.000363189)
(3.29255 -0.0367129 -0.000203168)
(3.27652 -0.0348637 -6.13035e-005)
(3.26079 -0.0331377 6.65989e-005)
(3.24535 -0.0315281 0.000183041)
(3.23021 -0.0300272 0.000288802)
(3.21536 -0.0286273 0.000383987)
(3.20079 -0.0273207 0.000468531)
(3.1865 -0.0260999 0.000542182)
(3.17249 -0.0249579 0.000605265)
(3.15873 -0.0238884 0.000658067)
(3.14524 -0.0228852 0.000701485)
(3.132 -0.0219431 0.000736412)
(3.119 -0.021057 0.000764009)
(3.10625 -0.0202225 0.000785486)
(3.09373 -0.0194355 0.000801917)
(3.08144 -0.0186921 0.00081444)
(3.06938 -0.0179892 0.000823766)
(3.05753 -0.0173234 0.000830685)
(3.0459 -0.0166922 0.000835533)
(3.03447 -0.0160928 0.000838762)
(3.02325 -0.015523 0.0008405)
(3.01222 -0.0149807 0.000840967)
(3.00138 -0.0144641 0.000840227)
(2.99073 -0.0139715 0.00083835)
(2.98026 -0.0135013 0.000835384)
(2.96996 -0.0130523 0.000831328)
(2.95984 -0.0126231 0.000826272)
(2.94989 -0.0122128 0.000820232)
(2.9401 -0.0118202 0.000813361)
(2.93047 -0.0114444 0.000805745)
(2.921 -0.0110847 0.000797571)
(2.91168 -0.0107402 0.000788966)
(2.90251 -0.0104101 0.00078008)
(2.89349 -0.0100939 0.000771027)
(2.88462 -0.00979068 0.00076189)
(2.87588 -0.00949999 0.000752753)
(2.86729 -0.00922121 0.000743639)
(2.85882 -0.00895378 0.000734619)
(2.85049 -0.00869717 0.0007257)
(2.84229 -0.00845092 0.000716957)
(2.83422 -0.00821456 0.000708387)
(2.82627 -0.00798766 0.000700042)
(2.81845 -0.00776981 0.000691899)
(2.81074 -0.00756064 0.000683966)
(2.80315 -0.0073598 0.000676199)
(2.79567 -0.00716696 0.000668595)
(2.78831 -0.00698183 0.000661129)
(2.78105 -0.00680415 0.000653801)
(2.7739 -0.00663371 0.000646595)
(2.76686 -0.00647032 0.00063949)
(2.75992 -0.00631386 0.000632456)
(2.75308 -0.00616424 0.000625459)
(2.74634 -0.00602147 0.000618484)
(2.7397 -0.00588563 0.000611529)