/*--------------------------------*- C++ -*----------------------------------*\
| =========                 |                                                 |
| \\      /  F ield         | OpenFOAM: The Open Source CFD Toolbox           |
|  \\    /   O peration     | Version:  5.x                                   |
|   \\  /    A nd           | Web:      www.OpenFOAM.org                      |
|    \\/     M anipulation  |                                                 |
\*---------------------------------------------------------------------------*/
/*   Windows 32 and 64 bit porting by blueCAPE: http://www.bluecape.com.pt   *\
|  Based on Windows porting (2.0.x v4) by Symscape: http://www.symscape.com   |
\*---------------------------------------------------------------------------*/
FoamFile
{
    version     2.0;
    format      ascii;
    class       volScalarField;
    location    "50";
    object      p;
}
// * * * * * * * * * * * * * * * * * * * * * * * * * * * * * * * * * * * * * //

dimensions      [0 2 -2 0 0 0 0];

internalField   nonuniform List<scalar> 
10000
(
72.618
64.8678
59.7793
57.291
55.2304
53.1833
51.4046
49.9418
48.6947
47.5916
46.6082
45.7318
44.946
44.2319
43.5715
42.9492
42.3524
41.771
41.198
40.6284
40.0592
39.4886
38.9159
38.3407
37.7634
37.1843
36.604
36.0231
35.4421
34.8616
34.2821
33.7039
33.1275
32.5531
31.9809
31.4112
30.8441
30.2797
29.7182
29.1596
28.6039
28.0512
27.5014
26.9547
26.411
25.8703
25.3325
24.7977
24.2658
23.7369
23.2108
22.6875
22.167
21.6493
21.1343
20.622
20.1123
19.6053
19.1009
18.599
18.0996
17.6026
17.1081
16.616
16.1262
15.6388
15.1536
14.6707
14.1899
13.7114
13.235
12.7607
12.2884
11.8182
11.35
10.8838
10.4195
9.95716
9.49668
9.03806
8.58127
8.12627
7.67304
7.22156
6.77179
6.32371
5.87729
5.43251
4.98934
4.54776
4.10773
3.66924
3.23227
2.79679
2.3628
1.93021
1.49924
1.06924
0.64179
0.212347
69.4372
63.5139
59.2675
57.0632
55.1668
53.2005
51.435
49.9596
48.6985
47.5863
46.599
45.7225
44.9383
44.226
43.5672
42.9461
42.35
41.769
41.1962
40.6268
40.0576
39.4872
38.9145
38.3395
37.7622
37.1833
36.6031
36.0223
35.4415
34.8611
34.2817
33.7036
33.1272
32.5529
31.9808
31.4111
30.8441
30.2797
29.7182
29.1596
28.604
28.0512
27.5015
26.9548
26.4111
25.8704
25.3326
24.7978
24.2659
23.7369
23.2108
22.6875
22.167
21.6493
21.1343
20.622
20.1124
19.6053
19.1009
18.599
18.0996
17.6026
17.1081
16.616
16.1262
15.6387
15.1536
14.6706
14.1899
13.7114
13.2349
12.7606
12.2884
11.8182
11.35
10.8838
10.4195
9.95712
9.49665
9.03802
8.58123
8.12623
7.673
7.22152
6.77175
6.32367
5.87725
5.43247
4.9893
4.54771
4.10769
3.6692
3.23223
2.79674
2.36276
1.93016
1.49923
1.06916
0.642127
0.211917
67.8625
63.1351
59.2909
57.0421
55.165
53.2628
51.5214
50.0388
48.7665
47.6475
46.6565
45.7776
44.9908
44.275
43.6119
42.9861
42.3853
41.7998
41.2228
40.6494
40.0768
39.5031
38.9277
38.3503
37.771
37.1902
36.6085
36.0264
35.4445
34.8632
34.283
33.7043
33.1275
32.5527
31.9803
31.4104
30.8432
30.2787
29.7171
29.1584
28.6027
28.05
27.5002
26.9535
26.4098
25.8691
25.3314
24.7966
24.2647
23.7358
23.2097
22.6864
22.166
21.6483
21.1333
20.6211
20.1114
19.6044
19.1
18.5981
18.0988
17.6018
17.1074
16.6153
16.1255
15.6381
15.1529
14.67
14.1893
13.7108
13.2344
12.7601
12.2878
11.8177
11.3495
10.8833
10.419
9.95666
9.49619
9.03758
8.5808
8.12581
7.6726
7.22112
6.77136
6.32329
5.87688
5.43211
4.98895
4.54738
4.10736
3.66888
3.23191
2.79643
2.36244
1.92984
1.49896
1.06883
0.642396
0.211102
66.859
62.5193
58.9637
56.8138
55.0271
53.2199
51.5338
50.0733
48.813
47.7047
46.7227
45.8497
45.066
44.3508
43.6859
43.0567
42.4517
41.8617
41.28
40.7019
40.1247
39.5466
38.967
38.3857
37.8028
37.2189
36.6343
36.0496
35.4653
34.882
34.3
33.7197
33.1414
32.5653
31.9918
31.4208
30.8527
30.2874
29.725
29.1657
28.6094
28.0561
27.5059
26.9587
26.4146
25.8735
25.3355
24.8004
24.2682
23.739
23.2126
22.6892
22.1685
21.6506
21.1355
20.623
20.1133
19.6061
19.1016
18.5996
18.1001
17.603
17.1084
16.6163
16.1264
15.6389
15.1537
14.6707
14.1899
13.7113
13.2349
12.7605
12.2883
11.818
11.3498
10.8836
10.4193
9.95688
9.49639
9.03775
8.58094
8.12593
7.67269
7.2212
6.77142
6.32334
5.87692
5.43213
4.98896
4.54737
4.10734
3.66885
3.23187
2.79637
2.36236
1.92974
1.49884
1.06868
0.642461
0.210605
66.0635
61.8748
58.589
56.6188
54.9294
53.1904
51.5488
50.1121
48.8661
47.7701
46.7988
45.9341
45.1559
44.4429
43.7775
43.1456
42.5363
41.9411
41.3535
40.7694
40.186
39.6022
39.0171
38.4308
37.8434
37.2553
36.667
36.079
35.4919
34.9059
34.3216
33.7393
33.1592
32.5816
32.0066
31.4344
30.8652
30.2989
29.7357
29.1756
28.6185
28.0646
27.5139
26.9662
26.4217
25.8802
25.3417
24.8063
24.2738
23.7443
23.2177
22.6939
22.173
21.6549
21.1396
20.627
20.117
19.6097
19.105
18.6028
18.1032
17.606
17.1113
16.6189
16.129
15.6414
15.156
14.6729
14.1921
13.7134
13.2368
12.7624
12.29
11.8197
11.3514
10.8851
10.4207
9.9583
9.49774
9.03904
8.58217
8.12711
7.67382
7.22227
6.77245
6.32432
5.87785
5.43302
4.98981
4.54819
4.10812
3.66959
3.23257
2.79703
2.36296
1.93029
1.49925
1.06906
0.642389
0.210695
65.4538
61.3649
58.2627
56.4334
54.8205
53.1343
51.5363
50.1311
48.9072
47.8284
46.8716
46.0183
45.2479
44.5393
43.875
43.2416
42.6288
42.0286
41.4352
40.845
40.2556
39.6658
39.0752
38.4838
37.8917
37.2994
36.7074
36.116
35.5258
34.9371
34.3504
33.7659
33.1839
32.6045
32.028
31.4544
30.8839
30.3165
29.7522
29.1912
28.6333
28.0786
27.5271
26.9788
26.4336
25.8915
25.3525
24.8166
24.2837
23.7537
23.2267
22.7026
22.1813
21.6629
21.1472
20.6343
20.124
19.6164
19.1115
18.6091
18.1092
17.6118
17.1169
16.6243
16.1342
15.6464
15.1609
14.6776
14.1966
13.7178
13.2411
12.7665
12.294
11.8236
11.3552
10.8888
10.4243
9.96173
9.50107
9.04228
8.58532
8.13017
7.6768
7.22517
6.77527
6.32707
5.88054
5.43565
4.99238
4.5507
4.11058
3.67199
3.23491
2.79931
2.36517
1.93242
1.50118
1.07091
0.643397
0.211838
65.0228
60.9936
57.9839
56.2395
54.6899
53.0536
51.4973
50.1244
48.9241
47.8639
46.9223
46.0813
45.3196
44.6161
43.9537
43.3194
42.7036
42.0989
41.5003
40.9043
40.3089
39.7134
39.1173
38.5209
37.9242
37.3279
36.7322
36.1376
35.5447
34.9536
34.3648
33.7786
33.195
32.6144
32.0367
31.4622
30.8908
30.3227
29.7578
29.1962
28.6378
28.0827
27.5309
26.9822
26.4368
25.8944
25.3552
24.8191
24.286
23.7559
23.2287
22.7045
22.1831
21.6646
21.1488
20.6358
20.1254
19.6178
19.1127
18.6103
18.1103
17.6129
17.1179
16.6253
16.1351
15.6473
15.1617
14.6784
14.1974
13.7185
13.2418
12.7672
12.2946
11.8242
11.3557
10.8893
10.4248
9.9622
9.50152
9.0427
8.58572
8.13055
7.67716
7.22552
6.77561
6.3274
5.88085
5.43596
4.99268
4.551
4.11088
3.6723
3.23522
2.79963
2.36548
1.93272
1.5014
1.07109
0.643181
0.21191
64.7666
60.7846
57.8337
56.1516
54.653
53.0511
51.5193
50.1663
48.9827
47.9364
47.0069
46.176
45.422
44.7233
44.0626
43.4274
42.8083
42.1988
41.5941
40.9913
40.3889
39.7864
39.1835
38.5806
37.9781
37.3763
36.7757
36.1767
35.5797
34.9851
34.3932
33.8041
33.218
32.6351
32.0555
31.4792
30.9062
30.3367
29.7705
29.2077
28.6483
28.0923
27.5395
26.9901
26.4439
25.901
25.3612
24.8245
24.291
23.7604
23.2329
22.7083
22.1865
21.6677
21.1517
20.6384
20.1278
19.62
19.1147
18.6121
18.112
17.6144
17.1193
16.6266
16.1363
15.6483
15.1627
14.6793
14.1981
13.7192
13.2424
12.7678
12.2952
11.8247
11.3562
10.8897
10.4251
9.96253
9.50182
9.04298
8.58598
8.13079
7.67738
7.22573
6.77581
6.32759
5.88104
5.43615
4.99288
4.55121
4.11111
3.67255
3.23551
2.79996
2.36588
1.93319
1.50203
1.07172
0.644284
0.212014
64.7463
60.6092
57.5912
55.9494
54.511
52.9488
51.4432
50.113
48.9501
47.9209
47.0051
46.1851
45.4395
44.7469
44.09
43.4563
42.8371
42.2262
41.6192
41.0137
40.4084
39.8029
39.1973
38.5918
37.9869
37.383
36.7806
36.1802
35.5819
34.9863
34.3935
33.8036
33.2169
32.6335
32.0534
31.4767
30.9034
30.3335
29.7671
29.2041
28.6445
28.0882
27.5353
26.9858
26.4395
25.8964
25.3565
24.8197
24.286
23.7554
23.2278
22.7031
22.1813
21.6624
21.1464
20.633
20.1225
19.6145
19.1093
18.6066
18.1065
17.6089
17.1138
16.6211
16.1308
15.6429
15.1572
14.6739
14.1927
13.7138
13.237
12.7624
12.2899
11.8194
11.3509
10.8845
10.42
9.95742
9.49675
9.03795
8.581
8.12586
7.67251
7.22091
6.77105
6.32289
5.87641
5.43159
4.98839
4.54681
4.1068
3.66835
3.23145
2.79605
2.36218
1.9297
1.49903
1.06893
0.64331
0.210427
65.913
61.3375
57.9967
56.2159
54.7097
53.0962
51.554
50.2062
49.0413
48.0191
47.1135
46.3034
45.5653
44.8766
44.2199
43.5831
42.958
42.3392
41.7232
41.1082
40.4935
39.879
39.2647
38.651
38.0385
37.4277
36.8191
36.2132
35.6101
35.0102
34.4136
33.8204
33.2309
32.645
32.0627
31.4841
30.9092
30.338
29.7704
29.2064
28.6459
28.089
27.5355
26.9854
26.4387
25.8953
25.3551
24.8181
24.2843
23.7535
23.2258
22.7011
22.1793
21.6603
21.1442
20.6309
20.1203
19.6125
19.1072
18.6046
18.1045
17.607
17.1119
16.6193
16.129
15.6411
15.1556
14.6723
14.1912
13.7123
13.2357
12.7611
12.2886
11.8182
11.3498
10.8834
10.419
9.95648
9.49588
9.03714
8.58025
8.12517
7.67188
7.22034
6.77054
6.32244
5.87602
5.43126
4.98813
4.54662
4.1067
3.66834
3.23155
2.79628
2.36257
1.93029
1.49976
1.06994
0.643546
0.21174
69.4372
63.5139
59.2674
57.0632
55.1668
53.2005
51.435
49.9596
48.6985
47.5863
46.599
45.7225
44.9383
44.226
43.5672
42.9461
42.35
41.769
41.1962
40.6268
40.0577
39.4872
38.9145
38.3395
37.7622
37.1833
36.6031
36.0223
35.4414
34.8611
34.2816
33.7036
33.1272
32.5529
31.9808
31.4111
30.8441
30.2797
29.7182
29.1596
28.604
28.0512
27.5015
26.9548
26.4111
25.8704
25.3326
24.7978
24.2659
23.7369
23.2108
22.6875
22.167
21.6493
21.1343
20.622
20.1124
19.6053
19.1009
18.599
18.0996
17.6026
17.1081
16.616
16.1262
15.6387
15.1536
14.6706
14.1899
13.7114
13.2349
12.7606
12.2884
11.8182
11.35
10.8838
10.4195
9.95712
9.49665
9.03802
8.58123
8.12623
7.673
7.22152
6.77175
6.32367
5.87725
5.43247
4.9893
4.54771
4.10769
3.6692
3.23223
2.79674
2.36276
1.93016
1.49923
1.06916
0.642127
0.211917
66.143
62.0826
58.7823
56.889
55.1572
53.2733
51.5184
50.027
48.7511
47.6301
46.6375
45.7574
44.97
44.2542
43.5914
42.9662
42.3662
41.7819
41.2062
40.6344
40.0635
39.4917
38.918
38.3423
37.7647
37.1855
36.6052
36.0244
35.4435
34.8632
34.2838
33.7058
33.1295
32.5552
31.9831
31.4134
30.8464
30.282
29.7205
29.1618
28.6061
28.0533
27.5035
26.9568
26.413
25.8722
25.3344
24.7995
24.2675
23.7385
23.2123
22.6889
22.1684
21.6506
21.1356
20.6232
20.1135
19.6064
19.1019
18.6
18.1005
17.6036
17.109
16.6168
16.127
15.6395
15.1543
14.6714
14.1906
13.712
13.2356
12.7613
12.289
11.8188
11.3506
10.8843
10.42
9.95765
9.49716
9.03852
8.58171
8.1267
7.67346
7.22196
6.77218
6.32409
5.87766
5.43287
4.98969
4.54809
4.10806
3.66956
3.23258
2.79709
2.36309
1.93048
1.4996
1.06944
0.643232
0.211106
64.6036
61.7929
58.9246
56.9363
55.1768
53.3542
51.6402
50.1556
48.875
47.7471
46.7464
45.8576
45.0615
44.337
43.6653
43.0314
42.4231
41.8312
41.2486
40.6706
40.0942
39.5175
38.9396
38.3603
37.7795
37.1976
36.615
36.0322
35.4498
34.8681
34.2877
33.7087
33.1317
32.5567
31.9842
31.4141
30.8467
30.2821
29.7204
29.1616
28.6058
28.0529
27.5031
26.9563
26.4125
25.8717
25.3339
24.7991
24.2671
23.7381
23.2119
22.6886
22.1681
21.6503
21.1353
20.623
20.1133
19.6062
19.1017
18.5998
18.1004
17.6034
17.1089
16.6167
16.1269
15.6395
15.1543
14.6713
14.1906
13.712
13.2356
12.7612
12.289
11.8188
11.3505
10.8843
10.42
9.95765
9.49716
9.03852
8.58172
8.12671
7.67347
7.22197
6.77219
6.3241
5.87768
5.43289
4.98971
4.54812
4.10808
3.66958
3.2326
2.7971
2.3631
1.93047
1.49966
1.06943
0.644394
0.209523
63.6116
61.1633
58.5695
56.6733
55.0107
53.3016
51.6584
50.2018
48.9334
47.8152
46.8224
45.9387
45.1452
44.4211
43.7481
43.1113
42.499
41.9024
41.3148
40.7317
40.1501
39.5683
38.9856
38.4017
37.8167
37.231
36.645
36.0592
35.474
34.89
34.3074
33.7266
33.1478
32.5714
31.9975
31.4263
30.8579
30.2924
29.7298
29.1703
28.6138
28.0603
27.51
26.9627
26.4184
25.8772
25.339
24.8038
24.2716
23.7423
23.2158
22.6922
22.1715
21.6535
21.1383
20.6257
20.1159
19.6087
19.104
18.6019
18.1024
17.6053
17.1106
16.6184
16.1285
15.6409
15.1556
14.6726
14.1918
13.7131
13.2366
12.7622
12.2899
11.8196
11.3514
10.8851
10.4208
9.95835
9.49782
9.03915
8.58231
8.12727
7.674
7.22248
6.77267
6.32456
5.87811
5.4333
4.9901
4.54849
4.10844
3.66992
3.23292
2.79739
2.36336
1.9307
1.49986
1.06961
0.644917
0.208906
62.8145
60.499
58.1792
56.478
54.9202
53.282
51.6853
50.253
48.9989
47.8924
46.9091
46.0316
45.2408
44.5167
43.8414
43.2007
42.5835
41.9812
41.3876
40.7984
40.2107
39.6231
39.035
38.446
37.8565
37.2666
36.6769
36.0878
35.4997
34.913
34.3281
33.7452
33.1647
32.5867
32.0114
31.4389
30.8694
30.3029
29.7395
29.1791
28.622
28.0679
27.517
26.9693
26.4246
25.8831
25.3445
24.809
24.2765
23.7469
23.2203
22.6965
22.1755
21.6574
21.142
20.6293
20.1193
19.6119
19.1071
18.6049
18.1052
17.608
17.1132
16.6209
16.1309
15.6432
15.1578
14.6747
14.1938
13.7151
13.2385
12.764
12.2916
11.8213
11.353
10.8866
10.4222
9.95976
9.49917
9.04044
8.58355
8.12845
7.67514
7.22357
6.77372
6.32556
5.87908
5.43423
4.99099
4.54935
4.10926
3.6707
3.23366
2.79808
2.36398
1.93126
1.50023
1.06998
0.644461
0.209458
62.2037
59.9787
57.8444
56.2911
54.8106
53.2245
51.6738
50.2766
49.0467
47.9581
46.9886
46.1209
45.3361
44.6147
43.9394
43.2964
42.6753
42.068
41.4688
40.8736
40.2801
39.6868
39.0933
38.4994
37.9053
37.3114
36.7179
36.1255
35.5343
34.945
34.3576
33.7726
33.1901
32.6103
32.0334
31.4595
30.8886
30.3209
29.7564
29.1951
28.637
28.0821
27.5305
26.982
26.4367
25.8945
25.3555
24.8194
24.2864
23.7564
23.2293
22.7051
22.1838
21.6653
21.1495
20.6365
20.1262
19.6186
19.1135
18.6111
18.1111
17.6137
17.1187
16.6262
16.136
15.6482
15.1626
14.6793
14.1983
13.7194
13.2427
12.7681
12.2956
11.8251
11.3567
10.8902
10.4257
9.96315
9.50247
9.04365
8.58667
8.13149
7.6781
7.22645
6.77653
6.32831
5.88176
5.43685
4.99356
4.55186
4.11172
3.67311
3.23601
2.80037
2.36618
1.93338
1.50208
1.07178
0.644924
0.211305
61.7727
59.5997
57.5538
56.0854
54.6693
53.1359
51.6313
50.2699
49.0647
47.9941
47.0388
46.1825
45.4059
44.6892
44.0155
43.3714
42.7471
42.1352
41.5306
40.9296
40.3301
39.7312
39.1324
38.5336
37.9352
37.3374
36.7406
36.1452
35.5516
34.96
34.3707
33.784
33.2001
32.6191
32.0411
31.4662
30.8946
30.3262
29.761
29.1992
28.6407
28.0854
27.5335
26.9847
26.4392
25.8968
25.3575
24.8213
24.2881
23.758
23.2308
22.7065
22.185
21.6664
21.1506
20.6375
20.1271
19.6194
19.1143
18.6118
18.1118
17.6143
17.1193
16.6267
16.1365
15.6486
15.163
14.6797
14.1986
13.7197
13.243
12.7684
12.2958
11.8254
11.3569
10.8904
10.4259
9.96329
9.50259
9.04375
8.58676
8.13157
7.67816
7.2265
6.77658
6.32835
5.88179
5.43688
4.99359
4.55189
4.11175
3.67315
3.23605
2.80043
2.36623
1.93342
1.502
1.07169
0.644194
0.21154
61.5177
59.391
57.4066
56.0037
54.6406
53.143
51.6641
50.3231
49.1336
48.0749
47.1297
46.2819
45.5121
44.7997
44.1273
43.4818
42.8539
42.2367
41.6256
41.0175
40.4108
39.8048
39.1991
38.594
37.9898
37.3866
36.785
36.1853
35.5877
34.9926
34.4002
33.8106
33.2241
32.6408
32.0608
31.4841
30.9108
30.3409
29.7744
29.2114
28.6518
28.0955
27.5427
26.9931
26.4468
25.9038
25.3639
24.8271
24.2935
23.7628
23.2352
22.7105
22.1887
21.6698
21.1537
20.6404
20.1298
19.6218
19.1165
18.6138
18.1137
17.6161
17.1209
16.6282
16.1378
15.6498
15.1642
14.6808
14.1996
13.7206
13.2438
12.7691
12.2965
11.826
11.3575
10.891
10.4264
9.96376
9.50303
9.04417
8.58714
8.13193
7.67851
7.22684
6.7769
6.32866
5.8821
5.43719
4.9939
4.55221
4.11209
3.67352
3.23646
2.80088
2.36676
1.93402
1.5028
1.07246
0.645842
0.211088
61.4931
59.1972
57.1378
55.7787
54.4806
53.0254
51.5752
50.2607
49.0954
48.0558
47.1247
46.2876
45.5259
44.8195
44.1508
43.5071
42.8793
42.2609
41.6479
41.0374
40.4281
39.8195
39.2114
38.604
37.9976
37.3926
36.7894
36.1882
35.5895
34.9933
34.4
33.8096
33.2225
32.6386
32.0581
31.481
30.9073
30.3371
29.7704
29.2071
28.6473
28.0908
27.5378
26.988
26.4416
25.8984
25.3584
24.8215
24.2878
23.7571
23.2294
22.7046
22.1828
21.6638
21.1477
20.6343
20.1237
19.6158
19.1105
18.6078
18.1076
17.61
17.1149
16.6222
16.1318
15.6439
15.1582
14.6749
14.1937
13.7148
13.238
12.7634
12.2908
11.8203
11.3518
10.8854
10.4209
9.95828
9.49761
9.0388
8.58183
8.12668
7.67332
7.22171
6.77184
6.32367
5.87718
5.43234
4.98914
4.54754
4.10753
3.66907
3.23215
2.79674
2.36286
1.93035
1.49978
1.0696
0.646025
0.207923
62.6774
59.9326
57.5256
56.0206
54.6598
53.1554
51.6683
50.3375
49.1733
48.144
47.2256
46.3997
45.6462
44.9438
44.2754
43.6285
42.9947
42.3684
41.7461
41.126
40.5071
39.889
39.2719
38.6561
38.0419
37.4298
36.8202
36.2135
35.6097
35.0093
34.4122
33.8187
33.2288
32.6427
32.0602
31.4815
30.9065
30.3352
29.7676
29.2036
28.6432
28.0863
27.5329
26.9829
26.4363
25.893
25.3529
24.816
24.2822
23.7516
23.2239
22.6993
22.1776
21.6587
21.1427
20.6294
20.119
19.6111
19.106
18.6034
18.1034
17.6059
17.1109
16.6184
16.1282
15.6403
15.1548
14.6715
14.1905
13.7117
13.235
12.7605
12.2881
11.8177
11.3493
10.883
10.4185
9.95607
9.49549
9.03677
8.5799
8.12484
7.67156
7.22004
6.77025
6.32217
5.87577
5.43102
4.98791
4.54641
4.1065
3.66815
3.23137
2.79612
2.36244
1.93018
1.49979
1.06993
0.644909
0.209674
67.8625
63.1351
59.2908
57.0421
55.165
53.2629
51.5214
50.0388
48.7664
47.6474
46.6565
45.7776
44.9908
44.2751
43.6119
42.9861
42.3853
41.7998
41.2228
40.6494
40.0768
39.5031
38.9277
38.3503
37.771
37.1902
36.6085
36.0264
35.4445
34.8632
34.283
33.7043
33.1275
32.5527
31.9803
31.4104
30.8432
30.2787
29.7171
29.1584
28.6027
28.05
27.5002
26.9535
26.4098
25.8691
25.3314
24.7966
24.2647
23.7358
23.2097
22.6864
22.166
21.6483
21.1333
20.6211
20.1114
19.6044
19.1
18.5981
18.0988
17.6018
17.1074
16.6153
16.1255
15.6381
15.1529
14.67
14.1893
13.7108
13.2344
12.7601
12.2878
11.8177
11.3495
10.8833
10.419
9.95666
9.4962
9.03759
8.5808
8.12581
7.6726
7.22112
6.77136
6.32329
5.87688
5.43211
4.98895
4.54738
4.10736
3.66888
3.23191
2.79643
2.36244
1.92984
1.49896
1.06883
0.642395
0.211102
64.6036
61.7929
58.9245
56.9362
55.1768
53.3543
51.6402
50.1556
48.8749
47.747
46.7464
45.8576
45.0615
44.337
43.6653
43.0314
42.4231
41.8311
41.2486
40.6706
40.0942
39.5175
38.9397
38.3603
37.7795
37.1976
36.615
36.0322
35.4498
34.8681
34.2876
33.7087
33.1317
32.5567
31.9842
31.4141
30.8467
30.2821
29.7204
29.1616
28.6058
28.0529
27.5031
26.9563
26.4125
25.8717
25.3339
24.799
24.2671
23.7381
23.2119
22.6886
22.1681
21.6503
21.1353
20.623
20.1133
19.6062
19.1017
18.5998
18.1004
17.6034
17.1089
16.6167
16.1269
15.6395
15.1543
14.6713
14.1906
13.712
13.2356
12.7612
12.289
11.8188
11.3505
10.8843
10.42
9.95765
9.49716
9.03852
8.58172
8.12671
7.67347
7.22197
6.77219
6.3241
5.87768
5.43289
4.98971
4.54812
4.10808
3.66958
3.2326
2.7971
2.3631
1.93047
1.49966
1.06943
0.644393
0.209522
63.044
61.4971
59.0979
57.0073
55.2029
53.451
51.8025
50.347
49.0772
47.9508
46.9425
46.0383
45.2226
44.4771
43.7847
43.1314
42.5058
41.8989
41.3039
40.7158
40.1312
39.5479
38.9647
38.381
37.7968
37.2121
36.6272
36.0426
35.4586
34.8757
34.2941
33.7143
33.1364
32.5608
31.9877
31.4171
30.8493
30.2843
29.7223
29.1632
28.6071
28.0541
27.5041
26.9572
26.4133
25.8724
25.3345
24.7996
24.2676
23.7385
23.2124
22.689
22.1685
21.6507
21.1357
20.6233
20.1137
19.6066
19.1021
18.6002
18.1007
17.6038
17.1092
16.6171
16.1273
15.6398
15.1546
14.6717
14.1909
13.7123
13.2359
12.7616
12.2893
11.8191
11.3509
10.8847
10.4204
9.95799
9.4975
9.03886
8.58205
8.12703
7.67379
7.22229
6.77251
6.32441
5.87798
5.43319
4.99001
4.54841
4.10837
3.66986
3.23287
2.79735
2.36333
1.93067
1.49994
1.06975
0.646432
0.2065
62.0434
60.8596
58.7444
56.7442
55.0358
53.4107
51.8495
50.4308
49.1753
48.0579
47.0547
46.1511
45.3324
44.582
43.8837
43.2238
42.5913
41.9775
41.3759
40.7814
40.1908
39.602
39.0136
38.4253
37.8368
37.2482
36.66
36.0724
35.4857
34.9005
34.3169
33.7352
33.1558
32.5788
32.0043
31.4325
30.8636
30.2976
29.7346
29.1747
28.6178
28.0641
27.5134
26.9658
26.4213
25.8799
25.3416
24.8062
24.2738
23.7444
23.2179
22.6942
22.1733
21.6553
21.14
20.6274
20.1175
19.6102
19.1055
18.6034
18.1038
17.6066
17.1119
16.6196
16.1297
15.6421
15.1568
14.6737
14.1928
13.7142
13.2376
12.7632
12.2909
11.8206
11.3523
10.886
10.4217
9.95922
9.49867
9.03998
8.58312
8.12806
7.67478
7.22324
6.77342
6.32529
5.87883
5.43401
4.99079
4.54917
4.1091
3.67056
3.23352
2.79795
2.36386
1.93114
1.50029
1.07013
0.646787
0.205785
61.238
60.1803
58.3471
56.5545
54.9571
53.409
51.9013
50.5115
49.2718
48.1661
47.1713
46.2706
45.4499
44.694
43.9882
43.32
42.679
42.0569
41.4474
40.8455
40.2481
39.653
39.059
38.4656
37.8726
37.2802
36.6886
36.098
35.5089
34.9214
34.3359
33.7527
33.1718
32.5935
32.0179
31.4452
30.8753
30.3085
29.7448
29.1841
28.6267
28.0723
27.5211
26.9731
26.4282
25.8865
25.3477
24.8121
24.2794
23.7497
23.2229
22.699
22.178
21.6597
21.1442
20.6315
20.1214
19.6139
19.1091
18.6068
18.107
17.6097
17.1149
16.6225
16.1325
15.6447
15.1593
14.6761
14.1952
13.7164
13.2398
12.7653
12.2929
11.8225
11.3542
10.8878
10.4234
9.96087
9.50026
9.0415
8.58458
8.12947
7.67613
7.22454
6.77467
6.32649
5.87999
5.43512
4.99187
4.5502
4.11009
3.6715
3.2344
2.79877
2.36456
1.93172
1.50046
1.07028
0.644638
0.207979
60.6188
59.6474
58.0052
56.369
54.8511
53.3567
51.9006
50.5525
49.341
48.2543
47.272
46.378
45.5587
44.8007
44.0906
43.4169
42.7698
42.1415
41.5257
40.9178
40.3146
39.714
39.115
38.5169
37.9197
37.3234
36.7283
36.1347
35.5428
34.9529
34.3652
33.7799
33.1973
32.6173
32.0402
31.4661
30.895
30.327
29.7621
29.2005
28.6421
28.0869
27.535
26.9863
26.4407
25.8984
25.3591
24.8229
24.2898
23.7596
23.2324
22.7081
22.1867
21.6681
21.1522
20.6391
20.1287
19.621
19.1158
18.6133
18.1133
17.6158
17.1207
16.6281
16.1378
15.6499
15.1643
14.681
14.1999
13.7209
13.2442
12.7695
12.297
11.8265
11.358
10.8916
10.427
9.96442
9.5037
9.04486
8.58785
8.13265
7.67923
7.22756
6.77761
6.32937
5.8828
5.43787
4.99455
4.55283
4.11265
3.67401
3.23684
2.80112
2.36678
1.9338
1.50202
1.07175
0.643202
0.211927
60.1812
59.2586
57.7058
56.1569
54.7045
53.2662
51.8627
50.5565
49.3726
48.3032
47.3326
46.4468
45.6326
44.8767
44.1663
43.4902
42.8392
42.2059
41.5844
40.9704
40.3613
39.755
39.1507
38.548
37.9466
37.3467
36.7486
36.1523
35.5582
34.9664
34.3771
33.7905
33.2066
32.6256
32.0475
31.4726
30.9007
30.3321
29.7667
29.2046
28.6458
28.0903
27.538
26.989
26.4433
25.9007
25.3613
24.8249
24.2916
23.7614
23.234
22.7096
22.1881
21.6694
21.1534
20.6403
20.1298
19.6219
19.1167
18.6141
18.114
17.6165
17.1214
16.6287
16.1384
15.6504
15.1648
14.6814
14.2002
13.7213
13.2445
12.7698
12.2972
11.8267
11.3582
10.8917
10.4271
9.96451
9.50378
9.04491
8.58788
8.13266
7.67922
7.22754
6.77759
6.32933
5.88275
5.43782
4.9945
4.55278
4.11261
3.67396
3.2368
2.80108
2.3667
1.93369
1.50168
1.07138
0.641487
0.213104
59.921
59.0429
57.5539
56.0742
54.6781
53.2796
51.907
50.6252
49.4579
48.3984
47.4341
46.5533
45.7428
44.9888
44.2782
43.5997
42.9444
42.3052
41.6769
41.0555
40.4388
39.8253
39.2141
38.605
37.998
37.393
36.7903
36.1899
35.5922
34.9971
34.4049
33.8155
33.2293
32.6461
32.0661
31.4894
30.916
30.3459
29.7793
29.216
28.6562
28.0997
27.5467
26.9969
26.4505
25.9073
25.3673
24.8304
24.2967
23.766
23.2383
22.7135
22.1916
21.6726
21.1564
20.643
20.1323
19.6243
19.1189
18.6161
18.1159
17.6182
17.1229
16.6301
16.1397
15.6517
15.1659
14.6825
14.2012
13.7222
13.2454
12.7706
12.298
11.8274
11.3589
10.8923
10.4277
9.96503
9.50426
9.04536
8.5883
8.13306
7.6796
7.2279
6.77794
6.32967
5.88309
5.43815
4.99484
4.55312
4.11296
3.67435
3.23722
2.80156
2.36728
1.93436
1.50267
1.07241
0.644098
0.2113
59.8945
58.8442
57.2775
55.842
54.5103
53.1521
51.8088
50.558
49.4206
48.3841
47.4352
46.5644
45.7609
45.0116
44.3037
43.6262
42.9704
42.3297
41.6991
41.0753
40.4561
39.8401
39.2267
38.6156
38.0068
37.4003
36.7962
36.1946
35.5958
34.9997
34.4065
33.8163
33.2292
32.6454
32.0648
31.4875
30.9136
30.3432
29.7762
29.2126
28.6525
28.0957
27.5424
26.9924
26.4458
25.9023
25.3621
24.8251
24.2911
23.7602
23.2324
22.7074
22.1854
21.6663
21.15
20.6365
20.1257
19.6176
19.1122
18.6094
18.1091
17.6114
17.1162
16.6234
16.133
15.6449
15.1592
14.6758
14.1946
13.7156
13.2387
12.764
12.2914
11.8209
11.3524
10.8859
10.4213
9.95873
9.49802
9.03919
8.5822
8.12703
7.67364
7.22202
6.77213
6.32394
5.87744
5.4326
4.98939
4.54778
4.10775
3.66928
3.23234
2.7969
2.36297
1.93043
1.49985
1.06993
0.647871
0.204057
61.0709
59.5613
57.6319
56.0534
54.6707
53.2682
51.8862
50.6167
49.4793
48.4516
47.5131
46.6513
45.8543
45.1088
44.402
43.723
43.0635
42.4174
41.7803
41.1493
40.5225
39.8989
39.2781
38.66
38.0445
37.4317
36.822
36.2153
35.6119
35.0117
34.4149
33.8216
33.2319
32.6457
32.0632
31.4843
30.9091
30.3376
29.7698
29.2055
28.6449
28.0878
27.5342
26.984
26.4371
25.8936
25.3534
24.8163
24.2824
23.7516
23.2238
22.699
22.1771
21.6582
21.142
20.6287
20.1181
19.6102
19.105
18.6024
18.1024
17.6048
17.1098
16.6172
16.127
15.6392
15.1536
14.6704
14.1894
13.7105
13.2339
12.7594
12.2869
11.8166
11.3482
10.8819
10.4175
9.95499
9.49443
9.03573
8.57888
8.12383
7.67058
7.21908
6.76931
6.32125
5.87487
5.43015
4.98706
4.54558
4.10569
3.66738
3.23062
2.79541
2.36178
1.9296
1.49949
1.0698
0.646792
0.205848
66.859
62.5193
58.9636
56.8137
55.0272
53.2201
51.5338
50.0733
48.813
47.7047
46.7226
45.8497
45.066
44.3508
43.6859
43.0567
42.4517
41.8617
41.28
40.7019
40.1247
39.5466
38.967
38.3857
37.8029
37.2189
36.6343
36.0496
35.4653
34.882
34.3
33.7196
33.1413
32.5653
31.9918
31.4208
30.8527
30.2874
29.725
29.1657
28.6094
28.0561
27.5059
26.9587
26.4146
25.8735
25.3354
24.8003
24.2682
23.739
23.2126
22.6892
22.1685
21.6506
21.1355
20.623
20.1133
19.6061
19.1016
18.5996
18.1001
17.603
17.1084
16.6163
16.1264
15.6389
15.1537
14.6707
14.1899
13.7113
13.2349
12.7605
12.2883
11.818
11.3498
10.8836
10.4193
9.95688
9.49639
9.03775
8.58094
8.12593
7.67269
7.2212
6.77142
6.32334
5.87692
5.43213
4.98896
4.54737
4.10734
3.66885
3.23187
2.79637
2.36236
1.92974
1.49884
1.06868
0.642461
0.210605
63.6116
61.1633
58.5694
56.6732
55.0108
53.3018
51.6585
50.2017
48.9333
47.8151
46.8224
45.9387
45.1452
44.4212
43.7481
43.1112
42.4989
41.9023
41.3148
40.7317
40.1501
39.5683
38.9856
38.4017
37.8167
37.231
36.645
36.0592
35.474
34.89
34.3073
33.7265
33.1478
32.5714
31.9975
31.4263
30.8579
30.2924
29.7298
29.1703
28.6138
28.0604
27.51
26.9627
26.4184
25.8772
25.339
24.8038
24.2716
23.7422
23.2158
22.6922
22.1715
21.6535
21.1383
20.6257
20.1159
19.6087
19.104
18.6019
18.1024
17.6053
17.1106
16.6184
16.1285
15.6409
15.1556
14.6726
14.1918
13.7131
13.2366
12.7622
12.2899
11.8196
11.3514
10.8851
10.4208
9.95835
9.49782
9.03915
8.58231
8.12727
7.674
7.22248
6.77267
6.32456
5.87811
5.4333
4.9901
4.54849
4.10844
3.66992
3.23292
2.79739
2.36336
1.9307
1.49986
1.06961
0.644917
0.208905
62.0434
60.8596
58.7443
56.7442
55.0358
53.4109
51.8496
50.4308
49.1752
48.0577
47.0547
46.1511
45.3325
44.5821
43.8837
43.2237
42.5912
41.9775
41.3758
40.7814
40.1908
39.602
39.0137
38.4253
37.8368
37.2483
36.66
36.0724
35.4857
34.9005
34.3169
33.7352
33.1558
32.5787
32.0043
31.4325
30.8636
30.2976
29.7346
29.1747
28.6178
28.0641
27.5134
26.9658
26.4214
25.8799
25.3416
24.8062
24.2738
23.7444
23.2179
22.6942
22.1733
21.6553
21.14
20.6274
20.1175
19.6102
19.1055
18.6034
18.1038
17.6066
17.1119
16.6196
16.1297
15.6421
15.1568
14.6737
14.1928
13.7142
13.2376
12.7632
12.2909
11.8206
11.3523
10.886
10.4217
9.95922
9.49867
9.03998
8.58312
8.12806
7.67478
7.22324
6.77342
6.32529
5.87883
5.434
4.99079
4.54917
4.1091
3.67056
3.23352
2.79795
2.36386
1.93114
1.50029
1.07013
0.646786
0.205785
61.0412
60.2315
58.4056
56.4894
54.871
53.3783
51.9146
50.5383
49.298
48.1885
47.1885
46.282
45.4556
44.6954
43.987
43.3175
42.6764
42.0551
41.4468
40.8465
40.2507
39.657
39.0641
38.4715
37.8791
37.287
36.6954
36.1049
35.5157
34.9282
34.3426
33.7592
33.1782
32.5998
32.024
31.4511
30.881
30.314
29.75
29.1891
28.6313
28.0767
27.5252
26.9769
26.4318
25.8897
25.3508
24.8149
24.2821
23.7522
23.2253
22.7012
22.1801
21.6617
21.1461
20.6332
20.123
19.6155
19.1105
18.6082
18.1083
17.611
17.1161
16.6236
16.1335
15.6457
15.1602
14.677
14.196
13.7172
13.2406
12.766
12.2936
11.8232
11.3548
10.8884
10.424
9.96144
9.50081
9.04204
8.58511
8.12998
7.67662
7.22502
6.77514
6.32696
5.88045
5.43557
4.99232
4.55064
4.11052
3.67192
3.2348
2.79914
2.3649
1.93202
1.50077
1.07059
0.64544
0.206902
60.234
59.5531
58.011
56.3031
54.7967
53.3855
51.9819
50.6388
49.4158
48.3187
47.3269
46.4215
45.5895
44.8191
44.0987
43.417
42.7644
42.1327
41.5152
40.9068
40.3039
39.7039
39.1055
38.508
37.9112
37.3153
36.7205
36.1272
35.5357
34.9463
34.3591
33.7745
33.1925
32.6132
32.0366
31.463
30.8923
30.3247
29.7601
29.1986
28.6403
28.0852
27.5333
26.9845
26.439
25.8966
25.3574
24.8212
24.2882
23.7581
23.2309
22.7067
22.1853
21.6668
21.151
20.638
20.1277
19.62
19.1149
18.6123
18.1124
17.6149
17.1198
16.6272
16.137
15.6491
15.1635
14.6802
14.1991
13.7202
13.2434
12.7688
12.2963
11.8258
11.3573
10.8909
10.4263
9.96375
9.50305
9.04421
8.58721
8.13201
7.67859
7.22693
6.77699
6.32875
5.88219
5.43726
4.99395
4.55222
4.11203
3.67336
3.23615
2.80037
2.36591
1.93278
1.50067
1.0703
0.639934
0.212681
59.6112
59.0187
57.6715
56.1236
54.6975
53.3415
51.9934
50.6959
49.5033
48.4257
47.4456
46.5448
45.7108
44.934
44.2051
43.5145
42.8535
42.214
41.5896
40.975
40.3664
39.7613
39.1582
38.5563
37.9555
37.356
36.758
36.1618
35.5678
34.9761
34.3871
33.8007
33.2171
32.6363
32.0584
31.4836
30.9117
30.3429
29.7773
29.2148
28.6556
28.0996
27.5469
26.9975
26.4513
25.9083
25.3685
24.8319
24.2983
23.7678
23.2403
22.7157
22.194
21.6751
21.1591
20.6457
20.1351
19.6271
19.1217
18.619
18.1188
17.621
17.1258
16.633
16.1426
15.6545
15.1687
14.6852
14.204
13.7249
13.2481
12.7733
12.3007
11.8301
11.3615
10.8949
10.4303
9.9676
9.50681
9.04788
8.59079
8.13551
7.68202
7.23028
6.78027
6.33196
5.88533
5.44034
4.99696
4.55517
4.11492
3.67617
3.23887
2.80296
2.36828
1.93488
1.50185
1.07122
0.635591
0.219857
59.1699
58.6286
57.373
55.9134
54.5529
53.2545
51.963
50.7113
49.5479
48.4867
47.5165
46.6215
45.7901
45.0132
44.2821
43.5878
42.9218
42.2767
41.6461
41.0251
40.4103
39.7992
39.1906
38.5838
37.9789
37.3758
36.7748
36.1763
35.5803
34.987
34.3967
33.8092
33.2246
32.643
32.0645
31.4889
30.9164
30.3471
29.781
29.2181
28.6586
28.1023
27.5493
26.9996
26.4532
25.9101
25.3702
24.8335
24.2998
23.7692
23.2416
22.717
22.1952
21.6763
21.1601
20.6467
20.136
19.628
19.1226
18.6197
18.1195
17.6217
17.1264