/*--------------------------------*- C++ -*----------------------------------*\
| =========                 |                                                 |
| \\      /  F ield         | OpenFOAM: The Open Source CFD Toolbox           |
|  \\    /   O peration     | Version:  5.x                                   |
|   \\  /    A nd           | Web:      www.OpenFOAM.org                      |
|    \\/     M anipulation  |                                                 |
\*---------------------------------------------------------------------------*/
/*   Windows 32 and 64 bit porting by blueCAPE: http://www.bluecape.com.pt   *\
|  Based on Windows porting (2.0.x v4) by Symscape: http://www.symscape.com   |
\*---------------------------------------------------------------------------*/
FoamFile
{
    version     2.0;
    format      ascii;
    class       volScalarField;
    location    "60";
    object      p;
}
// * * * * * * * * * * * * * * * * * * * * * * * * * * * * * * * * * * * * * //

dimensions      [0 2 -2 0 0 0 0];

internalField   nonuniform List<scalar> 
10000
(
72.6184
64.8682
59.7798
57.2914
55.2307
53.1839
51.4052
49.9422
48.695
47.592
46.6087
45.7324
44.9466
44.2324
43.572
42.9497
42.3528
41.7714
41.1983
40.6287
40.0595
39.489
38.9163
38.3411
37.7638
37.1847
36.6044
36.0234
35.4424
34.8618
34.2822
33.7039
33.1274
32.5529
31.9807
31.411
30.8439
30.2795
29.7179
29.1593
28.6036
28.0509
27.5011
26.9544
26.4107
25.8699
25.3322
24.7973
24.2654
23.7364
23.2103
22.687
22.1665
21.6488
21.1338
20.6216
20.1119
19.6049
19.1005
18.5986
18.0992
17.6022
17.1077
16.6156
16.1259
15.6384
15.1532
14.6703
14.1896
13.711
13.2346
12.7603
12.2881
11.8179
11.3497
10.8835
10.4192
9.95687
9.49641
9.0378
8.58101
8.12603
7.67281
7.22134
6.77158
6.32352
5.87712
5.43235
4.98919
4.54762
4.10762
3.66914
3.23219
2.79672
2.36274
1.93018
1.49922
1.06923
0.641794
0.212347
69.4377
63.5142
59.2681
57.0636
55.1671
53.2011
51.4356
49.9599
48.6987
47.5867
46.5996
45.7231
44.9389
44.2266
43.5677
42.9466
42.3504
41.7694
41.1966
40.6271
40.058
39.4875
38.9149
38.3399
37.7627
37.1837
36.6035
36.0226
35.4417
34.8613
34.2817
33.7036
33.1272
32.5528
31.9806
31.4109
30.8438
30.2795
29.718
29.1594
28.6037
28.051
27.5012
26.9545
26.4108
25.87
25.3322
24.7974
24.2655
23.7365
23.2104
22.6871
22.1666
21.6489
21.1339
20.6216
20.1119
19.6049
19.1005
18.5986
18.0992
17.6022
17.1077
16.6156
16.1258
15.6384
15.1532
14.6703
14.1896
13.711
13.2346
12.7603
12.2881
11.8179
11.3497
10.8835
10.4192
9.95684
9.49637
9.03776
8.58097
8.12599
7.67277
7.2213
6.77154
6.32348
5.87707
5.43231
4.98915
4.54758
4.10757
3.6691
3.23214
2.79667
2.3627
1.93013
1.49921
1.06915
0.642133
0.211916
67.863
63.1356
59.2914
57.0424
55.1654
53.2636
51.522
50.0389
48.7665
47.6479
46.6573
45.7784
44.9914
44.2755
43.6124
42.9867
42.3858
41.8003
41.2231
40.6497
40.0771
39.5035
38.9281
38.3507
37.7714
37.1906
36.6089
36.0267
35.4447
34.8634
34.2831
33.7044
33.1274
32.5526
31.9802
31.4102
30.8429
30.2785
29.7168
29.1581
28.6024
28.0497
27.4999
26.9532
26.4095
25.8687
25.331
24.7962
24.2643
23.7353
23.2092
22.686
22.1655
21.6478
21.1329
20.6206
20.111
19.604
19.0996
18.5977
18.0984
17.6015
17.107
16.6149
16.1251
15.6377
15.1526
14.6697
14.189
13.7104
13.234
12.7597
12.2875
11.8173
11.3492
10.883
10.4187
9.95637
9.49592
9.03732
8.58055
8.12557
7.67237
7.2209
6.77116
6.3231
5.87671
5.43195
4.98881
4.54725
4.10724
3.66878
3.23183
2.79636
2.36239
1.92981
1.49894
1.06882
0.642401
0.211105
66.8594
62.5196
58.964
56.814
55.0278
53.2209
51.5342
50.0732
48.8129
47.7052
46.7235
45.8505
45.0666
44.3512
43.6864
43.0573
42.4523
41.8621
41.2803
40.7022
40.125
39.547
38.9674
38.3861
37.8033
37.2193
36.6347
36.0499
35.4656
34.8821
34.3
33.7197
33.1413
32.5652
31.9916
31.4206
30.8524
30.2871
29.7248
29.1654
28.6091
28.0558
27.5056
26.9584
26.4143
25.8732
25.3351
24.8
24.2678
23.7386
23.2122
22.6887
22.1681
21.6502
21.135
20.6226
20.1128
19.6057
19.1012
18.5992
18.0997
17.6027
17.1081
16.6159
16.1261
15.6385
15.1533
14.6703
14.1896
13.711
13.2345
12.7602
12.2879
11.8177
11.3495
10.8833
10.419
9.95659
9.49611
9.03748
8.58068
8.12569
7.67246
7.22098
6.77122
6.32315
5.87674
5.43197
4.98881
4.54724
4.10723
3.66875
3.23178
2.7963
2.36231
1.9297
1.49883
1.06868
0.642467
0.210615
66.0639
61.8751
58.5897
56.6192
54.9301
53.1913
51.5493
50.112
48.866
47.7706
46.7998
45.9351
45.1564
44.4433
43.7779
43.1461
42.5369
41.9415
41.3538
40.7696
40.1863
39.6025
39.0176
38.4313
37.8439
37.2558
36.6674
36.0794
35.4921
34.9061
34.3217
33.7392
33.1591
32.5814
32.0064
31.4342
30.8649
30.2987
29.7354
29.1753
28.6183
28.0644
27.5136
26.9659
26.4213
25.8798
25.3413
24.8059
24.2734
23.7438
23.2172
22.6935
22.1726
21.6545
21.1391
20.6265
20.1166
19.6093
19.1045
18.6024
18.1028
17.6056
17.1109
16.6186
16.1286
15.641
15.1557
14.6726
14.1917
13.713
13.2365
12.7621
12.2897
11.8194
11.3511
10.8848
10.4204
9.958
9.49746
9.03877
8.58191
8.12686
7.67358
7.22205
6.77223
6.32412
5.87767
5.43286
4.98966
4.54805
4.108
3.66949
3.23248
2.79695
2.36291
1.93025
1.49923
1.06906
0.642388
0.210709
65.4543
61.3652
58.2632
56.4334
54.8207
53.135
51.5369
50.1311
48.9071
47.829
46.8727
46.0193
45.2485
44.5396
43.8754
43.2421
42.6293
42.029
41.4355
40.8452
40.2558
39.6662
39.0757
38.4843
37.8923
37.2999
36.7078
36.1163
35.526
34.9372
34.3504
33.7658
33.1838
32.6043
32.0278
31.4542
30.8837
30.3163
29.752
29.1909
28.6331
28.0784
27.5269
26.9785
26.4333
25.8912
25.3522
24.8162
24.2833
23.7533
23.2263
22.7021
22.1809
21.6624
21.1468
20.6338
20.1236
19.616
19.111
18.6087
18.1088
17.6114
17.1165
16.624
16.1338
15.646
15.1605
14.6773
14.1963
13.7174
13.2407
12.7662
12.2937
11.8233
11.3549
10.8884
10.424
9.96143
9.50078
9.042
8.58505
8.12991
7.67655
7.22494
6.77506
6.32687
5.88035
5.43548
4.99222
4.55055
4.11045
3.67188
3.23482
2.79924
2.36511
1.93238
1.50116
1.07091
0.643395
0.211861
65.0232
60.994
57.9845
56.2399
54.6906
53.0547
51.4979
50.1242
48.9239
47.8643
46.9234
46.0823
45.3201
44.6164
43.954
43.3199
42.7041
42.0994
41.5006
40.9044
40.3092
39.7138
39.1179
38.5214
37.9248
37.3284
36.7326
36.1379
35.5449
34.9537
34.3649
33.7785
33.1949
32.6142
32.0365
31.4619
30.8906
30.3224
29.7575
29.1959
28.6376
28.0825
27.5306
26.9819
26.4365
25.8941
25.3549
24.8187
24.2856
23.7555
23.2283
22.704
22.1827
21.6641
21.1483
20.6353
20.125
19.6174
19.1123
18.6099
18.1099
17.6125
17.1175
16.625
16.1348
15.6469
15.1614
14.6781
14.197
13.7181
13.2414
12.7668
12.2943
11.8238
11.3554
10.889
10.4245
9.96189
9.50122
9.04241
8.58544
8.13028
7.6769
7.22528
6.77538
6.32718
5.88065
5.43577
4.99251
4.55084
4.11073
3.67217
3.23511
2.79953
2.3654
1.93266
1.50136
1.07108
0.643164
0.211933
64.7669
60.7848
57.8341
56.1519
54.6539
53.0524
51.5199
50.1657
48.982
47.9367
47.008
46.177
45.4225
44.7235
44.063
43.4279
42.809
42.1993
41.5943
40.9914
40.3891
39.7867
39.184
38.5812
37.9786
37.3768
36.7761
36.177
35.58
34.9853
34.3933
33.8041
33.218
32.635
32.0553
31.479
30.906
30.3364
29.7702
29.2074
28.648
28.092
27.5393
26.9898
26.4436
25.9006
25.3608
24.8241
24.2905
23.76
23.2324
22.7078
22.1861
21.6673
21.1512
20.6379
20.1274
19.6195
19.1143
18.6117
18.1116
17.614
17.1189
16.6262
16.1359
15.648
15.1623
14.6789
14.1978
13.7189
13.2421
12.7674
12.2948
11.8243
11.3558
10.8894
10.4248
9.96222
9.50152
9.04269
8.5857
8.13052
7.67712
7.22548
6.77557
6.32736
5.88083
5.43595
4.9927
4.55104
4.11095
3.67241
3.23539
2.79986
2.36579
1.93312
1.50198
1.0717
0.64426
0.212044
64.7468
60.6096
57.5918
55.9495
54.5112
52.9498
51.444
50.113
48.9498
47.9214
47.0062
46.1863
45.4403
44.7473
44.0903
43.4568
42.8377
42.2266
41.6194
41.0138
40.4086
39.8032
39.1977
38.5923
37.9873
37.3834
36.781
36.1805
35.5822
34.9865
34.3936
33.8036
33.2169
32.6334
32.0532
31.4765
30.9032
30.3333
29.7668
29.2038
28.6442
28.088
27.5351
26.9855
26.4391
25.896
25.3561
24.8193
24.2856
23.755
23.2273
22.7027
22.1809
21.662
21.1459
20.6326
20.122
19.6141
19.1089
18.6062
18.1061
17.6085
17.1134
16.6207
16.1304
15.6425
15.1569
14.6735
14.1924
13.7135
13.2367
12.7621
12.2895
11.819
11.3506
10.8841
10.4196
9.95709
9.49643
9.03764
8.5807
8.12557
7.67222
7.22064
6.77078
6.32264
5.87617
5.43136
4.98818
4.54661
4.10662
3.66819
3.2313
2.79591
2.36206
1.9296
1.49896
1.06888
0.643252
0.210443
65.9134
61.3379
57.9973
56.2164
54.71
53.0968
51.5546
50.2064
49.0413
48.0195
47.1144
46.3042
45.5657
44.8768
44.2201
43.5835
42.9586
42.3397
41.7236
41.1086
40.4939
39.8795
39.2652
38.6515
38.0389
37.4281
36.8195
36.2134
35.6103
35.0103
34.4137
33.8205
33.2308
32.6448
32.0625
31.4839
30.909
30.3377
29.7701
29.2061
28.6457
28.0887
27.5352
26.9851
26.4384
25.895
25.3548
24.8178
24.2839
23.7531
23.2254
22.7006
22.1788
21.6599
21.1438
20.6305
20.1199
19.612
19.1068
18.6042
18.1041
17.6066
17.1115
16.6189
16.1287
15.6408
15.1552
14.6719
14.1909
13.712
13.2353
12.7607
12.2883
11.8178
11.3495
10.8831
10.4186
9.95614
9.49554
9.03681
8.57993
8.12486
7.67157
7.22005
6.77025
6.32216
5.87576
5.43101
4.9879
4.5464
4.10649
3.66815
3.23137
2.79612
2.36243
1.93017
1.49966
1.06986
0.643483
0.211731
69.4377
63.5141
59.2681
57.0636
55.1671
53.2011
51.4356
49.9599
48.6987
47.5867
46.5996
45.7231
44.9389
44.2266
43.5677
42.9466
42.3504
41.7694
41.1966
40.6271
40.058
39.4875
38.9149
38.3399
37.7627
37.1837
36.6035
36.0226
35.4417
34.8613
34.2818
33.7036
33.1272
32.5528
31.9806
31.4109
30.8438
30.2795
29.718
29.1594
28.6037
28.051
27.5012
26.9545
26.4108
25.87
25.3322
24.7974
24.2655
23.7365
23.2104
22.6871
22.1666
21.6489
21.1339
20.6216
20.1119
19.6049
19.1005
18.5986
18.0992
17.6022
17.1077
16.6156
16.1258
15.6384
15.1532
14.6703
14.1896
13.711
13.2346
12.7603
12.2881
11.8179
11.3497
10.8835
10.4192
9.95684
9.49637
9.03776
8.58097
8.12599
7.67277
7.2213
6.77154
6.32348
5.87707
5.43231
4.98915
4.54758
4.10757
3.6691
3.23214
2.79667
2.3627
1.93013
1.49921
1.06915
0.642133
0.211916
66.1435
62.0827
58.7827
56.8891
55.1579
53.2743
51.5192
50.0272
48.7511
47.6303
46.6382
45.7582
44.9707
44.2547
43.5918
42.9666
42.3666
41.7822
41.2065
40.6348
40.0639
39.492
38.9184
38.3428
37.7651
37.1859
36.6056
36.0247
35.4438
34.8634
34.2839
33.7058
33.1294
32.555
31.9829
31.4132
30.8461
30.2818
29.7202
29.1615
28.6058
28.053
27.5032
26.9564
26.4126
25.8718
25.334
24.7991
24.2671
23.738
23.2118
22.6885
22.1679
21.6502
21.1351
20.6228
20.1131
19.606
19.1015
18.5996
18.1001
17.6032
17.1086
16.6165
16.1267
15.6392
15.154
14.671
14.1903
13.7117
13.2353
12.7609
12.2887
11.8185
11.3503
10.884
10.4197
9.95737
9.49688
9.03825
8.58146
8.12646
7.67323
7.22174
6.77197
6.3239
5.87748
5.43271
4.98954
4.54796
4.10794
3.66946
3.2325
2.79702
2.36304
1.93044
1.49958
1.06943
0.643238
0.211109
64.6041
61.7939
58.9243
56.9356
55.1778
53.3558
51.6411
50.1557
48.8746
47.7471
46.7471
45.8587
45.0624
44.3376
43.6657
43.0317
42.4235
41.8315
41.2489
40.6709
40.0945
39.5179
38.9401
38.3608
37.78
37.1981
36.6154
36.0326
35.4501
34.8683
34.2877
33.7087
33.1316
32.5566
31.9839
31.4139
30.8465
30.2819
29.7201
29.1613
28.6055
28.0527
27.5028
26.956
26.4122
25.8714
25.3335
24.7987
24.2667
23.7377
23.2115
22.6881
22.1676
21.6499
21.1348
20.6225
20.1128
19.6058
19.1013
18.5994
18.1
17.603
17.1085
16.6164
16.1266
15.6391
15.1539
14.671
14.1902
13.7117
13.2352
12.7609
12.2886
11.8184
11.3502
10.884
10.4197
9.95736
9.49688
9.03826
8.58146
8.12647
7.67324
7.22176
6.77199
6.32392
5.8775
5.43273
4.98957
4.54799
4.10797
3.66949
3.23252
2.79703
2.36305
1.93044
1.49965
1.06943
0.644396
0.20956
63.612
61.1633
58.5692
56.6735
55.0125
53.3033
51.6587
50.2012
48.9328
47.8152
46.8231
45.9398
45.1461
44.4218
43.7485
43.1116
42.4993
41.9027
41.315
40.7319
40.1503
39.5686
38.986
38.4022
37.8173
37.2316
36.6456
36.0597
35.4744
34.8902
34.3074
33.7265
33.1477
32.5712
31.9973
31.426
30.8576
30.2921
29.7296
29.17
28.6135
28.0601
27.5097
26.9624
26.4182
25.8769
25.3387
24.8035
24.2712
23.7418
23.2154
22.6918
22.171
21.653
21.1378
20.6253
20.1154
19.6082
19.1036
18.6015
18.102
17.6049
17.1103
16.618
16.1281
15.6406
15.1553
14.6722
14.1914
13.7128
13.2363
12.7619
12.2896
11.8193
11.3511
10.8848
10.4205
9.95806
9.49754
9.03888
8.58205
8.12702
7.67377
7.22226
6.77247
6.32437
5.87793
5.43314
4.98996
4.54836
4.10832
3.66982
3.23283
2.79732
2.36331
1.93067
1.49985
1.06961
0.644916
0.208976
62.815
60.4993
58.1798
56.4786
54.9213
53.2826
51.6854
50.2531
48.9992
47.893
46.9098
46.0322
45.2413
44.5171
43.8418
43.2012
42.584
41.9817
41.3879
40.7985
40.2108
39.6234
39.0354
38.4466
37.8571
37.2673
36.6776
36.0884
35.5001
34.9133
34.3282
33.7452
33.1645
32.5864
32.011
31.4386
30.869
30.3026
29.7392
29.1789
28.6217
28.0677
27.5168
26.9691
26.4244
25.8828
25.3442
24.8087
24.2761
23.7465
23.2198
22.696
22.175
21.6569
21.1415
20.6288
20.1188
19.6115
19.1067
18.6045
18.1048
17.6076
17.1129
16.6205
16.1305
15.6429
15.1575
14.6744
14.1935
13.7147
13.2382
12.7637
12.2913
11.821
11.3527
10.8863
10.4219
9.95946
9.49888
9.04017
8.58328
8.1282
7.6749
7.22334
6.77351
6.32537
5.87889
5.43406
4.99084
4.54921
4.10914
3.6706
3.23357
2.79801
2.36393
1.93123
1.50022
1.06999
0.644455
0.209552
62.2042
59.9791
57.8447
56.2906
54.8104
53.2248
51.6745
50.2777
49.0477
47.9588
46.989
46.121
45.3362
44.6148
43.9398
43.297
42.676
42.0686
41.4691
40.8738
40.2802
39.687
39.0937
38.5
37.906
37.3121
36.7187
36.1261
35.5348
34.9452
34.3577
33.7725
33.1898
32.6099
32.033
31.4591
30.8882
30.3206
29.7561
29.1949
28.6368
28.082
27.5303
26.9818
26.4365
25.8943
25.3551
24.819
24.286
23.7559
23.2288
22.7046
22.1833
21.6648
21.149
20.636
20.1258
19.6181
19.1131
18.6107
18.1108
17.6134
17.1184
16.6258
16.1357
15.6478
15.1623
14.679
14.1979
13.7191
13.2424
12.7678
12.2952
11.8248
11.3564
10.8899
10.4254
9.96284
9.50217
9.04337
8.5864
8.13124
7.67785
7.22622
6.77632
6.32811
5.88157
5.43668
4.9934
4.55172
4.11159
3.673
3.23591
2.8003
2.36613
1.93335
1.50207
1.07179
0.644923
0.211412
61.7732
59.6001
57.5544
56.0858
54.6702
53.137
51.6318
50.27
49.0647
47.9942
47.0394
46.1832
45.4065
44.6898
44.016
43.3719
42.7475
42.1355
41.5306
40.9295
40.3301
39.7315
39.1329
38.5344
37.9361
37.3383
36.7415
36.1459
35.552
34.9601
34.3706
33.7838
33.1997
32.6186
32.0406
31.4657
30.8941
30.3258
29.7608
29.199
28.6406
28.0853
27.5333
26.9846
26.439
25.8965
25.3572
24.8209
24.2877
23.7575
23.2303
22.7059
22.1845
21.6659
21.1501
20.637
20.1267
19.619
19.1139
18.6114
18.1115
17.614
17.119
16.6264
16.1362
15.6483
15.1627
14.6794
14.1983
13.7194
13.2427
12.768
12.2955
11.825
11.3565
10.8901
10.4256
9.96297
9.50228
9.04346
8.58647
8.1313
7.6779
7.22626
6.77634
6.32813
5.88158
5.43669
4.99341
4.55173
4.11161
3.67302
3.23594
2.80034
2.36616
1.93337
1.50198
1.07168
0.644184
0.211647
61.518
59.391
57.4064
56.004
54.6423
53.1448
51.6646
50.3221
49.1322
48.0743
47.1304
46.2835
45.5137
44.8008
44.1279
43.4821
42.8538
42.2364
41.6251
41.0172
40.4108
39.8051
39.1999
38.5951
37.991
37.3878
36.786
36.186
35.5882
34.9927
34.4001
33.8103
33.2237
32.6403
32.0602
31.4836
30.9103
30.3405
29.7742
29.2112
28.6516
28.0954
27.5425
26.9929
26.4466
25.9035
25.3635
24.8267
24.293
23.7624
23.2347
22.71
22.1882
21.6693
21.1532
20.6399
20.1293
19.6214
19.1161
18.6135
18.1133
17.6157
17.1206
16.6278
16.1375
15.6495
15.1638
14.6804
14.1992
13.7203
13.2435
12.7688
12.2962
11.8256
11.3571
10.8906
10.4261
9.96344
9.50272
9.04387
8.58686
8.13166
7.67824
7.22659
6.77666
6.32843
5.88189
5.43699
4.99372
4.55204
4.11194
3.67338
3.23634
2.80078
2.36667
1.93395
1.50277
1.07245
0.64582
0.211209
61.4937
59.1979
57.1378
55.7776
54.4809
53.0272
51.577
50.2612
49.0947
48.0552
47.125
46.2889
45.5275
44.8208
44.1516
43.5074
42.8792
42.2605
41.6473
41.037
40.428
39.8198
39.2121
38.6049
37.9987
37.3936
36.7903
36.1889
35.5898
34.9934
34.3999
33.8094
33.2222
32.6382
32.0577
31.4806
30.907
30.3368
29.7701
29.2069
28.6471
28.0906
27.5376
26.9878
26.4413
25.8981
25.358
24.8211
24.2873
23.7566
23.2289
22.7041
22.1823
21.6634
21.1472
20.6339
20.1233
19.6153
19.1101
18.6074
18.1073
17.6097
17.1145
16.6218
16.1315
15.6435
15.1579
14.6745
14.1934
13.7144
13.2377
12.763
12.2905
11.82
11.3515
10.885
10.4205
9.95796
9.49729
9.03849
8.58153
8.12639
7.67303
7.22144
6.77157
6.32341
5.87694
5.43212
4.98893
4.54734
4.10734
3.6689
3.232
2.7966
2.36274
1.93025
1.49971
1.06955
0.645952
0.208017
62.6778
59.9326
57.5266
56.0213
54.6598
53.1555
51.6691
50.3384
49.1736
48.1437
47.2255
46.4003
45.6471
44.9447
44.2761
43.6289
42.9949
42.3684
41.7461
41.126
40.5073
39.8895
39.2726
38.6568
38.0426
37.4305
36.8207
36.2138
35.6099
35.0093
34.4122
33.8186
33.2287
32.6425
32.06
31.4813
30.9063
30.335
29.7674
29.2034
28.643
28.0861
27.5327
26.9826
26.436
25.8926
25.3525
24.8156
24.2818
23.7511
23.2235
22.6988
22.1771
21.6583
21.1422
20.629
20.1185
19.6107
19.1056
18.603
18.103
17.6056
17.1106
16.618
16.1278
15.64
15.1544
14.6712
14.1902
13.7114
13.2347
12.7602
12.2877
11.8173
11.349
10.8826
10.4182
9.95573
9.49515
9.03645
8.57958
8.12453
7.67126
7.21975
6.76997
6.3219
5.87551
5.43077
4.98767
4.54618
4.10629
3.66796
3.23119
2.79596
2.36229
1.93006
1.49969
1.06986
0.644841
0.209679
67.863
63.1356
59.2914
57.0424
55.1654
53.2637
51.522
50.0389
48.7665
47.6479
46.6573
45.7784
44.9914
44.2755
43.6124
42.9867
42.3858
41.8003
41.2231
40.6497
40.0771
39.5035
38.9281
38.3507
37.7714
37.1906
36.6089
36.0267
35.4447
34.8634
34.2831
33.7044
33.1274
32.5526
31.9802
31.4102
30.8429
30.2785
29.7168
29.1581
28.6024
28.0497
27.4999
26.9532
26.4095
25.8687
25.331
24.7962
24.2643
23.7353
23.2092
22.686
22.1655
21.6478
21.1329
20.6206
20.111
19.604
19.0996
18.5977
18.0984
17.6015
17.107
16.6149
16.1251
15.6377
15.1526
14.6697
14.189
13.7104
13.234
12.7597
12.2875
11.8173
11.3492
10.883
10.4187
9.95637
9.49592
9.03732
8.58055
8.12557
7.67237
7.22091
6.77116
6.3231
5.87671
5.43195
4.98881
4.54725
4.10724
3.66878
3.23183
2.79636
2.36239
1.92981
1.49894
1.06882
0.642401
0.211105
64.6041
61.7939
58.9243
56.9356
55.1778
53.3559
51.6412
50.1556
48.8746
47.7471
46.7471
45.8587
45.0624
44.3376
43.6657
43.0317
42.4235
41.8315
41.2489
40.6709
40.0945
39.5179
38.9401
38.3608
37.78
37.1981
36.6154
36.0326
35.4501
34.8683
34.2877
33.7087
33.1316
32.5566
31.9839
31.4139
30.8465
30.2819
29.7201
29.1613
28.6055
28.0527
27.5028
26.956
26.4122
25.8714
25.3335
24.7987
24.2667
23.7377
23.2115
22.6881
22.1676
21.6499
21.1348
20.6225
20.1128
19.6058
19.1013
18.5994
18.1
17.603
17.1085
16.6164
16.1266
15.6391
15.1539
14.671
14.1902
13.7117
13.2352
12.7609
12.2886
11.8184
11.3502
10.884
10.4197
9.95736
9.49688
9.03826
8.58146
8.12647
7.67324
7.22176
6.77199
6.32392
5.8775
5.43273
4.98957
4.54799
4.10797
3.66949
3.23252
2.79703
2.36305
1.93044
1.49965
1.06943
0.644395
0.20956
63.0446
61.4988
59.0964
57.0061
55.2049
53.4536
51.8032
50.3464
49.0764
47.9507
46.9433
46.0398
45.2241
44.4782
43.7854
43.1318
42.506
41.8991
41.304
40.7159
40.1313
39.548
38.965
38.3814
37.7973
37.2126
36.6278
36.0431
35.459
34.876
34.2942
33.7143
33.1363
32.5606
31.9874
31.4168
30.849
30.284
29.7219
29.1629
28.6068
28.0538
27.5038
26.9569
26.413
25.8721
25.3342
24.7992
24.2672
23.7381
23.2119
22.6886
22.168
21.6502
21.1352
20.6229
20.1132
19.6061
19.1017
18.5998
18.1003
17.6034
17.1089
16.6167
16.1269
15.6395
15.1543
14.6713
14.1906
13.712
13.2356
12.7613
12.289
11.8188
11.3506
10.8844
10.4201
9.9577
9.49722
9.03859
8.58179
8.12679
7.67356
7.22208
6.77231
6.32423
5.87781
5.43303
4.98987
4.54828
4.10826
3.66977
3.23279
2.79728
2.36328
1.93064
1.49993
1.06973
0.646435
0.206644
62.0438
60.8602
58.7431
56.745
55.0394
53.4128
51.8483
50.4288
49.1743
48.0582
47.0558
46.1525
45.3338
44.5832
43.8845
43.2244
42.5918
41.9779
41.376
40.7814
40.1907
39.6018
39.0135
38.4254
37.8371
37.2488
36.6607
36.0731
35.4865
34.9011
34.3173
33.7354
33.1558
32.5785
32.0039
31.4321
30.8631
30.2971
29.7342
29.1743
28.6175
28.0638
27.5131
26.9656
26.4211
25.8797
25.3413
24.8059
24.2735
23.744
23.2175
22.6938
22.1729
21.6548
21.1395
20.6269
20.117
19.6097
19.1051
18.603
18.1034
17.6062
17.1115
16.6193
16.1293
15.6417
15.1564
14.6734
14.1925
13.7138
13.2373
12.7629
12.2906
11.8203
11.352
10.8857
10.4214
9.95893
9.49839
9.03972
8.58287
8.12782
7.67455
7.22303
6.77322
6.32511
5.87866
5.43385
4.99065
4.54904
4.10898
3.67046
3.23344
2.79789
2.36382
1.93112
1.50029
1.07011
0.646792
0.206073
61.2385
60.1814
58.3469
56.5556
54.9593
53.4089
51.8993
50.5106
49.2731
48.1684
47.1729
46.2712
45.4499
44.6939
43.9885
43.3208
42.68
42.0579
41.448
40.8457
40.2478
39.6525
39.0585
38.4653
37.8727
37.2806
36.6893
36.0989
35.5098
34.9223
34.3366
33.7531
33.1719
32.5933
32.0175
31.4446
30.8747
30.3079
29.7442
29.1836
28.6262
28.072
27.5209
26.9729
26.4281
25.8863
25.3475
24.8118
24.2791
23.7493
23.2225
22.6986
22.1775
21.6592
21.1437
20.6309
20.1209
19.6134
19.1086
18.6063
18.1066
17.6094
17.1146
16.6222
16.1321
15.6444
15.159
14.6758
14.1949
13.7161
13.2395
12.765
12.2926
11.8222
11.3539
10.8875
10.4231
9.96057
9.49996
9.04122
8.58432
8.12921
7.67589
7.22431
6.77446
6.3263
5.87981
5.43495
4.99171
4.55006
4.10996
3.67139
3.23432
2.7987
2.36451
1.9317
1.50046
1.07026
0.644646
0.208395
60.6193
59.6485
58.0045
56.3683
54.8514
53.3562
51.8999
50.5538
49.3443
48.2575
47.2733
46.3773
45.5572
44.7994
44.0904
43.4178
42.7714
42.1431
41.5269
40.9183
40.3144
39.7135
39.1143
38.5165
37.9196
37.3238
36.7291
36.1357
35.5438
34.9538
34.3659
33.7803
33.1973
32.617
32.0397
31.4654
30.8943
30.3263
29.7616
29.2001
28.6418
28.0868
27.5349
26.9862
26.4407
25.8983
25.359
24.8227
24.2895
23.7593
23.232
22.7076
22.1861
21.6675
21.1516
20.6385
20.1282
19.6204
19.1153
18.6128
18.1129
17.6154
17.1204
16.6277
16.1375
15.6496
15.164
14.6807
14.1996
13.7206
13.2439
12.7692
12.2967
11.8262
11.3577
10.8912
10.4267
9.96411
9.50341
9.04457
8.58757
8.13239
7.67898
7.22733
6.7774
6.32917
5.88261
5.43769
4.99439
4.55268
4.11253
3.6739
3.23675
2.80106
2.36673
1.93378
1.50204
1.07173
0.643251
0.212413
60.1817
59.2598
57.7056
56.1575
54.7068
53.267
51.8617
50.5558
49.3734
48.3046
47.3335
46.4469
45.6325
44.8769
44.1671
43.4916
42.8408
42.207
41.5848
40.9701
40.3605
39.7541
39.15
38.5476
37.9468
37.3475
36.7497
36.1536
35.5595
34.9674
34.3778
33.7907
33.2064
32.625
32.0468
31.4717
30.8998
30.3313
29.7661
29.2042
28.6455
28.0902
27.538
26.9891
26.4434
25.9007
25.3612
24.8248
24.2914
23.761
23.2336
22.7091
22.1875
21.6688
21.1528
20.6396
20.1292
19.6214
19.1162
18.6136
18.1136
17.6161
17.121
16.6283
16.1381
15.6501
15.1645
14.6811
14.1999
13.721
13.2442
12.7695
12.2969
11.8264
11.3579
10.8914
10.4268
9.96419
9.50347
9.04461
8.58759
8.13239
7.67896
7.22729
6.77735
6.32911
5.88255
5.43763
4.99432
4.55261
4.11246
3.67383
3.23669
2.80099
2.36664
1.93364
1.50169
1.07133
0.641566
0.213595
59.9213
59.0435
57.5526
56.0749
54.682
53.2823
51.9061
50.6224
49.4557
48.3976
47.4348
46.555
45.7451
44.9913
44.2804
43.6014
42.9453
42.3051
41.6758
41.0539
40.4371
39.8239
39.2134
38.6052
37.9989
37.3945
36.7921
36.1918
35.5938
34.9983
34.4056
33.8157
33.229
32.6454
32.0652
31.4884
30.915
30.3451
29.7786
29.2155
28.6559
28.0996
27.5466
26.9969
26.4505
25.9072
25.3672
24.8302
24.2964
23.7656
23.2378
22.713
22.1911
21.6721
21.1559
20.6425
20.1318
19.6238
19.1184
18.6157
18.1155
17.6178
17.1226
16.6298
16.1394
15.6514
15.1656
14.6822
14.2009
13.7219
13.245
12.7703
12.2977
11.8271
11.3585
10.892
10.4274
9.96471
9.50395
9.04507
8.58802
8.13279
7.67935
7.22766
6.7777
6.32945
5.88287
5.43795
4.99465
4.55295
4.11281
3.67421
3.2371
2.80146
2.3672
1.93431
1.50267
1.07234
0.644176
0.211779
59.8951
58.846
57.2761
55.8397
54.5114
53.155
51.8108
50.5585
49.42
48.3832
47.4349
46.5651
45.7627
45.014
44.306
43.6279
42.9711
42.3293
41.6979
41.0736
40.4544
39.8389
39.2263
38.616
38.0078
37.4017
36.7978
36.1962
35.597
35.0005
34.4069
33.8163
33.2289
32.6448
32.064
31.4868
30.9129
30.3426
29.7757
29.2123
28.6523
28.0956
27.5423
26.9924
26.4456
25.9022
25.3619
24.8248
24.2907
23.7598
23.2319
22.7069
22.1849
21.6658
21.1495
20.636
20.1252
19.6172
19.1118
18.609
18.1088
17.611
17.1158
16.623
16.1326
15.6446
15.1588
14.6754
14.1942
13.7152
13.2384
12.7637
12.2911
11.8205
11.352
10.8855
10.421
9.9584
9.4977
9.03888
8.5819
8.12674
7.67336
7.22175
6.77187
6.3237
5.87721
5.43238
4.98917
4.54758
4.10757
3.66911
3.23219
2.79676
2.36286
1.93033
1.49981
1.0698
0.647904
0.20439
61.0713
59.5619
57.6328
56.0539
54.6705
53.2678
51.8867
50.6184
49.4808
48.4516
47.512
46.6503
45.8543
45.11
44.4038
43.7248
43.0649
42.4181
41.7802
41.1487
40.5219
39.8985
39.2781
38.6604
38.0452
37.4327
36.823
36.2161
35.6124
35.012
34.4149
33.8214
33.2315
32.6452
32.0627
31.4839
30.9088
30.3374
29.7696
29.2054
28.6448
28.0877
27.5341
26.9838
26.4369
25.8933
25.353
24.8159
24.2819
23.7511
23.2233
22.6985
22.1766
21.6577
21.1416
20.6282
20.1177
19.6098
19.1046
18.602
18.102
17.6045
17.1095
16.6169
16.1266
15.6388
15.1533
14.67
14.189
13.7102
13.2335
12.759
12.2866
11.8162
11.3478
10.8815
10.4171
9.95465
9.4941
9.03541
8.57856
8.12353
7.67028
7.21879
6.76903
6.32098
5.87461
5.4299
4.98682
4.54535
4.10548
3.66718
3.23044
2.79525
2.36163
1.92948
1.49939
1.06972
0.646741
0.205839
66.8594
62.5196
58.964
56.814
55.0279
53.221
51.5342
50.0732
48.8129
47.7052
46.7235
45.8505
45.0666
44.3512
43.6863
43.0573
42.4522
41.8622
41.2803
40.7022
40.125
39.547
38.9674
38.3861
37.8033
37.2193
36.6346
36.0499
35.4656
34.8821
34.3001
33.7197
33.1413
32.5652
31.9916
31.4206
30.8524
30.2871
29.7248
29.1654
28.6091
28.0558
27.5056
26.9584
26.4143
25.8732
25.3351
24.8
24.2678
23.7386
23.2122
22.6887
22.1681
21.6502
21.135
20.6226
20.1128
19.6057
19.1012
18.5992
18.0997
17.6027
17.1081
16.6159
16.1261
15.6385
15.1533
14.6703
14.1896
13.711
13.2345
12.7602
12.2879
11.8177
11.3495
10.8833
10.419
9.95659
9.49611
9.03748
8.58068
8.12569
7.67246
7.22098
6.77122
6.32315
5.87674
5.43197
4.98881
4.54724
4.10723
3.66875
3.23178
2.7963
2.36231
1.9297
1.49883
1.06868
0.642466
0.210615
63.612
61.1633
58.5691
56.6734
55.0126
53.3033
51.6587
50.2012
48.9328
47.8152
46.8232
45.9398
45.1461
44.4218
43.7485
43.1116
42.4993
41.9027
41.315
40.7319
40.1503
39.5686
38.986
38.4022
37.8173
37.2316
36.6455
36.0597
35.4744
34.8902
34.3074
33.7265
33.1477
32.5712
31.9973
31.426
30.8576
30.2921
29.7296
29.17
28.6135
28.0601
27.5097
26.9624
26.4182
25.8769
25.3387
24.8035
24.2712
23.7418
23.2154
22.6918
22.171
21.653
21.1378
20.6253
20.1154
19.6082
19.1036
18.6015
18.102
17.6049
17.1103
16.618
16.1281
15.6406
15.1553
14.6722
14.1914
13.7128
13.2363
12.7619
12.2896
11.8193
11.3511
10.8848
10.4205
9.95806
9.49754
9.03888
8.58205
8.12702
7.67377
7.22226
6.77247
6.32437
5.87793
5.43314
4.98996
4.54836
4.10832
3.66982
3.23283
2.79732
2.36331
1.93067
1.49985
1.06961
0.644916
0.208976
62.0438
60.8602
58.743
56.745
55.0394
53.4128
51.8483
50.4287
49.1743
48.0582
47.0558
46.1526
45.3338
44.5831
43.8845
43.2244
42.5918
41.9779
41.3761
40.7814
40.1907
39.6018
39.0135
38.4254
37.8371
37.2488
36.6607
36.0731
35.4865
34.9011
34.3173
33.7354
33.1558
32.5786
32.0039
31.4321
30.8631
30.2971
29.7342
29.1743
28.6175
28.0638
27.5131
26.9656
26.4211
25.8797
25.3413
24.8059
24.2735
23.744
23.2175
22.6938
22.1729
21.6548
21.1395
20.6269
20.117
19.6097
19.1051
18.603
18.1034
17.6062
17.1115
16.6193
16.1293
15.6417
15.1564
14.6734
14.1925
13.7138
13.2373
12.7629
12.2906
11.8203
11.352
10.8857
10.4214
9.95893
9.49839
9.03972
8.58287
8.12782
7.67455
7.22303
6.77322
6.32511
5.87866
5.43385
4.99065
4.54904
4.10898
3.67046
3.23344
2.79789
2.36382
1.93112
1.50029
1.07011
0.646792
0.206073
61.0415
60.2309
58.4042
56.4922
54.8761
53.379
51.9104
50.5344
49.2976
48.1904
47.1906
46.2831
45.4561
44.6958
43.9878
43.3189
42.6781
42.0567
41.4479
40.8469
40.2503
39.656
39.063
38.4705
37.8785
37.2869
36.696
36.1058
35.5169
34.9294
34.3437
33.76
33.1787
32.5998
32.0237
31.4505
30.8803
30.3131
29.7491
29.1883
28.6307
28.0762
27.5248
26.9767
26.4316
25.8896
25.3507
24.8148
24.2819
23.752
23.225
22.7009
22.1797
21.6612
21.1456
20.6327
20.1225
19.615
19.11
18.6077
18.1079
17.6105
17.1157
16.6232
16.1331
15.6453
15.1599
14.6767
14.1957
13.7169
13.2402
12.7657
12.2933
11.8229
11.3545
10.8881
10.4237
9.96114
9.50052
9.04177
8.58485
8.12973
7.6764
7.22481
6.77495
6.32678
5.88028
5.43542
4.99218
4.55051
4.1104
3.67182
3.23473
2.79909
2.36487
1.93201
1.50079
1.07057
0.645459
0.20748
60.2343
59.5531
58.0107
56.3063
54.8004
53.3839
51.9768
50.6367
49.4191
48.3239
47.3297
46.4208
45.5867
44.8166
44.0979
43.4184
42.7674
42.1362
41.5181
40.9084
40.3039
39.7026
39.1035
38.5059
37.9096
37.3144
36.7206
36.1281
35.5372
34.9481
34.3609
33.776
33.1934
32.6135
32.0364
31.4623
30.8913
30.3235
29.7589
29.1975
28.6394
28.0845
27.5328
26.9843
26.4389
25.8966
25.3575
24.8213
24.2882
23.758
23.2308
22.7064
22.185
21.6664
21.1505
20.6375
20.1271
19.6194
19.1143
18.6118
18.1119
17.6144
17.1194
16.6269
16.1366
15.6488
15.1632
14.6799
14.1988
13.7199
13.2431
12.7685
12.296
11.8255
11.357
10.8906
10.426
9.96344
9.50275
9.04392
8.58693
8.13175
7.67835
7.22671
6.77679
6.32856
5.88201
5.4371
4.9938
4.55208
4.11191
3.67326
3.23608
2.80032
2.36588
1.93278
1.50071
1.07029
0.639992
0.213509
59.6116
59.0188
57.6705
56.1248
54.6992
53.3393
51.9897
50.6966
49.5095
48.4325
47.4481
46.5419
45.7051
44.929
44.2032
43.5162
42.8578
42.2193
41.5941
40.9776
40.3668
39.7599
39.1556
38.5535
37.9532
37.3547
36.7579
36.1629
35.5696
34.9784
34.3892
33.8024
33.2182
32.6367
32.0581
31.4827
30.9104
30.3415
29.7758
29.2135
28.6546
28.0989
27.5465
26.9974
26.4514
25.9085
25.3688
24.8321
24.2985
23.7678
23.2402
22.7154
22.1936
21.6746
21.1584
20.645
20.1344
19.6264
19.1211
18.6184
18.1182
17.6206
17.1254
16.6326
16.1422
15.6542
15.1684
14.685
14.2037
13.7247
13.2478
12.773
12.3004
11.8298
11.3612
10.8946
10.43
9.96729
9.5065
9.04758
8.59051
8.13525
7.68177
7.23005
6.78006
6.33176
5.88514
5.44017
4.99681
4.55503
4.11479
3.67607
3.23879
2.80291
2.36826
1.93488
1.50191
1.07122
0.635759
0.220777
59.1703
58.6286
57.3725
55.9162
54.557
53.254
51.9586
50.7091
49.5503
48.4909
47.5182
46.6197
45.7866
45.0106
44.2822
43.5908
42.9266
42.2815
41.6496
41.0264
40.4093
39.7966
39.1873
38.5807
37.9767
37.375
36.7754
36.178
35.5827
34.9897
34.399
33.8109
33.2256
32.6431
32.0638
31.4876
30.9148
30.3454
29.7794
29.2168
28.6576
28.1017
27.5491
26.9997
26.4536
25.9106
25.3707
24.8338
24.3001
23.7693
23.2415
22.7167
22.1947
21.6757
21.1594
20.646