/*--------------------------------*- C++ -*----------------------------------*\
| =========                 |                                                 |
| \\      /  F ield         | OpenFOAM: The Open Source CFD Toolbox           |
|  \\    /   O peration     | Version:  5.x                                   |
|   \\  /    A nd           | Web:      www.OpenFOAM.org                      |
|    \\/     M anipulation  |                                                 |
\*---------------------------------------------------------------------------*/
/*   Windows 32 and 64 bit porting by blueCAPE: http://www.bluecape.com.pt   *\
|  Based on Windows porting (2.0.x v4) by Symscape: http://www.symscape.com   |
\*---------------------------------------------------------------------------*/
FoamFile
{
    version     2.0;
    format      ascii;
    class       surfaceScalarField;
    location    "60";
    object      phi;
}
// * * * * * * * * * * * * * * * * * * * * * * * * * * * * * * * * * * * * * //

dimensions      [0 3 -1 0 0 0 0];

internalField   nonuniform List<scalar> 
27900
(
2.58749e-008
1.82352e-009
1.82352e-009
2.13738e-008
2.25055e-009
2.25055e-009
1.71646e-008
2.1046e-009
2.1046e-009
1.36186e-008
1.77298e-009
1.77299e-009
1.08769e-008
1.37086e-009
1.37086e-009
8.89615e-009
9.90379e-010
9.90372e-010
7.50501e-009
6.95571e-010
6.95563e-010
6.51039e-009
4.97305e-010
4.97304e-010
5.76328e-009
3.73547e-010
3.73552e-010
5.1719e-009
2.95685e-010
2.95691e-010
4.68913e-009
2.41382e-010
2.41386e-010
4.29378e-009
1.97675e-010
1.97676e-010
3.97486e-009
1.5946e-010
1.59461e-010
3.72292e-009
1.25967e-010
1.25969e-010
3.52772e-009
9.75986e-011
9.76026e-011
3.37876e-009
7.44784e-011
7.44837e-011
3.26619e-009
5.62822e-011
5.62866e-011
3.18141e-009
4.23886e-011
4.23901e-011
3.11733e-009
3.20412e-011
3.20387e-011
3.06833e-009
2.45056e-011
2.44993e-011
3.0301e-009
1.91204e-011
1.91119e-011
2.99942e-009
1.53459e-011
1.53375e-011
2.97391e-009
1.27578e-011
1.27517e-011
2.95186e-009
1.10284e-011
1.10261e-011
2.93205e-009
9.90778e-012
9.9096e-012
2.91363e-009
9.20901e-012
9.21415e-012
2.89604e-009
8.79377e-012
8.80069e-012
2.87891e-009
8.56217e-012
8.56912e-012
2.86202e-009
8.44353e-012
8.44896e-012
2.84524e-009
8.38913e-012
8.39204e-012
2.82851e-009
8.36661e-012
8.36663e-012
2.81181e-009
8.35431e-012
8.35164e-012
2.79514e-009
8.33879e-012
8.33414e-012
2.77853e-009
8.31322e-012
8.30756e-012
2.76199e-009
8.27401e-012
8.26844e-012
2.74557e-009
8.21832e-012
8.21378e-012
2.72928e-009
8.14643e-012
8.14358e-012
2.71317e-009
8.06018e-012
8.05932e-012
2.69725e-009
7.96164e-012
7.96273e-012
2.68155e-009
7.85361e-012
7.85637e-012
2.66608e-009
7.73844e-012
7.74241e-012
2.65084e-009
7.6182e-012
7.62284e-012
2.63585e-009
7.49441e-012
7.49914e-012
2.62112e-009
7.36834e-012
7.3727e-012
2.60663e-009
7.24096e-012
7.24458e-012
2.59241e-009
7.11301e-012
7.11571e-012
2.57844e-009
6.98518e-012
6.98688e-012
2.56472e-009
6.85792e-012
6.85866e-012
2.55126e-009
6.73165e-012
6.73156e-012
2.53805e-009
6.60661e-012
6.60585e-012
2.52509e-009
6.48304e-012
6.48181e-012
2.51237e-009
6.36115e-012
6.35964e-012
2.49989e-009
6.24112e-012
6.23948e-012
2.48765e-009
6.12313e-012
6.12146e-012
2.47563e-009
6.00725e-012
6.00562e-012
2.46385e-009
5.8936e-012
5.89206e-012
2.45229e-009
5.78223e-012
5.78079e-012
2.44095e-009
5.67329e-012
5.67196e-012
2.42981e-009
5.5667e-012
5.56546e-012
2.41889e-009
5.46254e-012
5.46139e-012
2.40817e-009
5.36093e-012
5.35987e-012
2.39765e-009
5.2619e-012
5.26092e-012
2.38732e-009
5.16532e-012
5.16443e-012
2.37718e-009
5.07115e-012
5.07036e-012
2.36722e-009
4.97929e-012
4.97863e-012
2.35744e-009
4.88969e-012
4.8892e-012
2.34784e-009
4.80229e-012
4.80198e-012
2.33841e-009
4.71709e-012
4.71698e-012
2.32914e-009
4.63403e-012
4.63412e-012
2.32003e-009
4.5531e-012
4.55337e-012
2.31108e-009
4.47423e-012
4.47463e-012
2.30229e-009
4.39736e-012
4.39785e-012
2.29364e-009
4.32241e-012
4.32295e-012
2.28515e-009
4.24935e-012
4.2499e-012
2.27679e-009
4.17807e-012
4.1786e-012
2.26857e-009
4.10851e-012
4.109e-012
2.26049e-009
4.04059e-012
4.04101e-012
2.25254e-009
3.97427e-012
3.97462e-012
2.24472e-009
3.90946e-012
3.90973e-012
2.23703e-009
3.84611e-012
3.8463e-012
2.22946e-009
3.78412e-012
3.78422e-012
2.22202e-009
3.72346e-012
3.72347e-012
2.21469e-009
3.66402e-012
3.66395e-012
2.20748e-009
3.60575e-012
3.60561e-012
2.20038e-009
3.54853e-012
3.54833e-012
2.1934e-009
3.49233e-012
3.49209e-012
2.18652e-009
3.43708e-012
3.43681e-012
2.17976e-009
3.38279e-012
3.38252e-012
2.1731e-009
3.32947e-012
3.32922e-012
2.16655e-009
3.27739e-012
3.27717e-012
2.1601e-009
3.22663e-012
3.22647e-012
2.15374e-009
3.17855e-012
3.17847e-012
2.14748e-009
3.13129e-012
3.13128e-012
2.14129e-009
3.09488e-012
3.09496e-012
2.13521e-009
3.04004e-012
3.04022e-012
2.1291e-009
3.05867e-012
3.05896e-012
2.12342e-009
2.83627e-012
2.83665e-012
2.11704e-009
3.19378e-012
3.19428e-012
2.1142e-009
1.41826e-012
1.41871e-012
3.83117e-012
3.83154e-012
3.23627e-008
6.63364e-010
2.15223e-009
3.03058e-008
1.51617e-009
2.79132e-009
2.78022e-008
1.76656e-009
2.84157e-009
2.50755e-008
1.80701e-009
2.69272e-009
2.23346e-008
1.6856e-009
2.42608e-009
1.97835e-008
1.43803e-009
2.10353e-009
1.75394e-008
1.15383e-009
1.78573e-009
1.56348e-008
8.98267e-010
1.50373e-009
1.40528e-008
6.91207e-010
1.26428e-009
1.27556e-008
5.28889e-010
1.064e-009
1.16987e-008
4.01579e-010
8.96696e-010
1.08399e-008
3.00096e-010
7.56359e-010
1.01432e-008
2.17878e-010
6.38317e-010
9.5788e-009
1.51127e-010
5.39209e-010
9.12231e-009
9.76834e-011
4.56415e-010
8.7532e-009
5.5957e-011
3.87629e-010
8.45427e-009
2.45031e-011
3.30716e-010
8.21111e-009
1.82209e-012
2.83732e-010
8.01192e-009
-1.37007e-011
2.44933e-010
7.84722e-009
-2.36095e-011
2.12808e-010
7.70945e-009
-2.9199e-011
1.86096e-010
7.59257e-009
-3.15402e-011
1.63762e-010
7.49186e-009
-3.15107e-011
1.44974e-010
7.40364e-009
-2.98183e-011
1.29067e-010
7.32507e-009
-2.70243e-011
1.15516e-010
7.25394e-009
-2.35642e-011
1.03907e-010
7.1886e-009
-1.97699e-011
9.39113e-011
7.12779e-009
-1.58861e-011
8.52678e-011
7.07057e-009
-1.20871e-011
7.77653e-011
7.01622e-009
-8.48962e-012
7.12317e-011
6.96424e-009
-5.16598e-012
6.55253e-011
6.91422e-009
-2.15464e-012
6.0527e-011
6.8659e-009
5.33307e-013
5.6138e-011
6.81905e-009
2.89565e-012
5.22724e-011
6.77354e-009
4.9384e-012
4.88556e-011
6.72926e-009
6.68208e-012
4.58245e-011
6.68613e-009
8.1547e-012
4.31263e-011
6.6441e-009
9.3857e-012
4.07154e-011
6.60312e-009
1.04038e-011
3.85523e-011
6.56314e-009
1.12376e-011
3.66044e-011
6.52413e-009
1.19126e-011
3.48437e-011
6.48606e-009
1.2452e-011
3.32461e-011
6.4489e-009
1.28756e-011
3.17909e-011
6.41261e-009
1.32011e-011
3.04602e-011
6.37718e-009
1.34437e-011
2.92385e-011
6.34257e-009
1.36163e-011
2.81126e-011
6.30876e-009
1.37301e-011
2.70711e-011
6.27572e-009
1.37948e-011
2.61042e-011
6.24343e-009
1.38183e-011
2.52036e-011
6.21187e-009
1.38074e-011
2.43619e-011
6.18101e-009
1.3768e-011
2.35729e-011
6.15084e-009
1.37048e-011
2.28311e-011
6.12133e-009
1.36221e-011
2.2132e-011
6.09246e-009
1.35233e-011
2.14715e-011
6.06421e-009
1.34113e-011
2.0846e-011
6.03657e-009
1.32888e-011
2.02526e-011
6.00951e-009
1.31578e-011
1.96886e-011
5.98301e-009
1.30203e-011
1.91516e-011
5.95706e-009
1.28774e-011
1.86397e-011
5.93164e-009
1.27307e-011
1.81512e-011
5.90674e-009
1.25815e-011
1.76843e-011
5.88234e-009
1.24307e-011
1.72378e-011
5.85841e-009
1.22787e-011
1.68101e-011
5.83496e-009
1.21262e-011
1.64003e-011
5.81196e-009
1.19736e-011
1.6007e-011
5.7894e-009
1.18213e-011
1.56294e-011
5.76727e-009
1.16695e-011
1.52665e-011
5.74555e-009
1.15188e-011
1.49174e-011
5.72423e-009
1.13694e-011
1.45815e-011
5.70331e-009
1.12215e-011
1.4258e-011
5.68276e-009
1.10752e-011
1.39464e-011
5.66258e-009
1.09305e-011
1.3646e-011
5.64276e-009
1.07876e-011
1.33561e-011
5.62328e-009
1.06466e-011
1.30764e-011
5.60415e-009
1.05073e-011
1.28063e-011
5.58534e-009
1.03698e-011
1.25453e-011
5.56686e-009
1.0234e-011
1.22928e-011
5.54868e-009
1.01001e-011
1.20486e-011
5.53081e-009
9.96783e-012
1.18122e-011
5.51324e-009
9.83725e-012
1.15833e-011
5.49595e-009
9.70822e-012
1.13614e-011
5.47895e-009
9.58072e-012
1.11462e-011
5.46222e-009
9.4546e-012
1.09374e-011
5.44577e-009
9.32974e-012
1.07346e-011
5.42957e-009
9.20597e-012
1.05376e-011
5.41364e-009
9.08322e-012
1.0346e-011
5.39795e-009
8.96138e-012
1.01597e-011
5.38252e-009
8.84048e-012
9.97832e-012
5.36733e-009
8.72069e-012
9.80173e-012
5.35237e-009
8.6026e-012
9.63002e-012
5.33765e-009
8.48712e-012
9.46294e-012
5.32315e-009
8.37622e-012
9.30201e-012
5.30887e-009
8.2713e-012
9.1441e-012
5.29478e-009
8.18055e-012
9.00351e-012
5.2809e-009
8.08826e-012
8.8373e-012
5.26712e-009
8.0603e-012
8.78664e-012
5.25376e-009
7.82858e-012
8.36493e-012
5.23995e-009
8.09869e-012
8.90759e-012
5.22958e-009
6.18912e-012
5.60739e-012
8.39923e-012
1.02623e-011
3.55149e-008
3.83521e-010
2.45027e-009
3.29269e-008
1.03804e-009
3.06604e-009
3.04077e-008
1.27909e-009
3.00666e-009
2.80403e-008
1.35243e-009
2.82202e-009
2.58021e-008
1.34033e-009
2.58346e-009
2.36997e-008
1.23788e-009
2.30254e-009
2.17646e-008
1.0767e-009
2.01226e-009
2.00259e-008
9.00132e-010
1.73678e-009
1.85003e-008
7.30791e-010
1.48603e-009
1.719e-008
5.75221e-010
1.26393e-009
1.60847e-008
4.35104e-010
1.07182e-009
1.51648e-008
3.11105e-010
9.08857e-010
1.44065e-008
2.0346e-010
7.72726e-010
1.37848e-008
1.12237e-010
6.6051e-010
1.3276e-008
3.7404e-011
5.69085e-010
1.28584e-008
-2.16401e-011
4.95287e-010
1.25134e-008
-6.64703e-011
4.35958e-010
1.22262e-008
-9.91246e-011
3.88181e-010
1.19845e-008
-1.21503e-010
3.49513e-010
1.17784e-008
-1.35425e-010
3.17917e-010
1.16e-008
-1.42598e-010
2.91748e-010
1.14433e-008
-1.44555e-010
2.69707e-010
1.13036e-008
-1.42608e-010
2.50805e-010
1.11773e-008
-1.37852e-010
2.34304e-010
1.10618e-008
-1.31176e-010
2.19663e-010
1.0955e-008
-1.23287e-010
2.06494e-010
1.08555e-008
-1.14736e-010
1.94518e-010
1.0762e-008
-1.05939e-010
1.83538e-010
1.06738e-008
-9.72017e-011
1.73412e-010
1.059e-008
-8.87361e-011
1.64038e-010
1.05102e-008
-8.06828e-011
1.55337e-010
1.04339e-008
-7.31279e-011
1.47247e-010
1.03608e-008
-6.61159e-011
1.39715e-010
1.02907e-008
-5.96601e-011
1.32698e-010
1.02232e-008
-5.37526e-011
1.26155e-010
1.01582e-008
-4.8372e-011
1.20053e-010
1.00955e-008
-4.34861e-011
1.14357e-010
1.00349e-008
-3.90586e-011
1.09036e-010
9.97635e-009
-3.50504e-011
1.0406e-010
9.91961e-009
-3.1421e-011
9.94047e-011
9.86462e-009
-2.81323e-011
9.50449e-011
9.81128e-009
-2.51488e-011
9.09577e-011
9.75948e-009
-2.24383e-011
8.71211e-011
9.70915e-009
-1.99721e-011
8.3516e-011
9.6602e-009
-1.77242e-011
8.01241e-011
9.61256e-009
-1.56717e-011
7.69295e-011
9.56618e-009
-1.37944e-011
7.39171e-011
9.52098e-009
-1.20744e-011
7.10737e-011
9.47691e-009
-1.04957e-011
6.83867e-011
9.43392e-009
-9.04477e-012
6.58449e-011
9.39196e-009
-7.70925e-012
6.3438e-011
9.35099e-009
-6.47843e-012
6.11566e-011
9.31096e-009
-5.34274e-012
5.89921e-011
9.27184e-009
-4.29368e-012
5.69368e-011
9.23359e-009
-3.32373e-012
5.49834e-011
9.19619e-009
-2.42612e-012
5.31254e-011
9.15958e-009
-1.59474e-012
5.13568e-011
9.12376e-009
-8.24056e-013
4.96723e-011
9.08868e-009
-1.08457e-013
4.8067e-011
9.05432e-009
5.56388e-013
4.65364e-011
9.02065e-009
1.17329e-012
4.50757e-011
8.98766e-009
1.74542e-012
4.36812e-011
8.95531e-009
2.27615e-012
4.23489e-011
8.9236e-009
2.76864e-012
4.10757e-011
8.89249e-009
3.22567e-012
3.98581e-011
8.86197e-009
3.64967e-012
3.86934e-011
8.83201e-009
4.04296e-012
3.75786e-011
8.80261e-009
4.4077e-012
3.65115e-011
8.77375e-009
4.74583e-012
3.54893e-011
8.7454e-009
5.05908e-012
3.45101e-011
8.71756e-009
5.34901e-012
3.35712e-011
8.6902e-009
5.61704e-012
3.26709e-011
8.66332e-009
5.86451e-012
3.1807e-011
8.63689e-009
6.09264e-012
3.09779e-011
8.61092e-009
6.30256e-012
3.01816e-011
8.58537e-009
6.49532e-012
2.94167e-011
8.56026e-009
6.67187e-012
2.86814e-011
8.53555e-009
6.83314e-012
2.79745e-011
8.51124e-009
6.97995e-012
2.72944e-011
8.48733e-009
7.11304e-012
2.664e-011
8.46379e-009
7.23307e-012
2.60097e-011
8.44063e-009
7.34068e-012
2.54027e-011
8.41783e-009
7.43636e-012
2.48177e-011
8.39539e-009
7.52057e-012
2.42537e-011
8.37329e-009
7.59369e-012
2.37095e-011
8.35154e-009
7.6561e-012
2.31845e-011
8.33011e-009
7.70821e-012
2.26775e-011
8.30902e-009
7.75051e-012
2.21879e-011
8.28824e-009
7.78378e-012
2.17148e-011
8.26778e-009
7.80916e-012
2.12581e-011
8.24762e-009
7.82875e-012
2.08172e-011
8.22776e-009
7.8452e-012
2.03935e-011
8.20818e-009
7.86408e-012
1.99841e-011
8.18887e-009
7.89008e-012
1.96044e-011
8.16982e-009
7.93328e-012
1.92092e-011
8.15092e-009
8.0041e-012
1.89601e-011
8.13246e-009
8.04903e-012
1.82455e-011
8.1135e-009
8.26102e-012
1.8794e-011
8.09835e-009
7.69253e-012
1.36474e-011
8.86913e-012
2.11949e-011
3.99181e-008
2.63556e-010
2.77984e-009
3.67264e-008
7.32677e-010
3.49707e-009
3.36027e-008
9.70377e-010
3.43245e-009
3.06905e-008
1.04922e-009
3.21536e-009
2.80551e-008
1.04886e-009
2.92687e-009
2.57282e-008
9.85958e-010
2.5788e-009
2.37111e-008
8.76733e-010
2.21705e-009
2.19855e-008
7.47553e-010
1.87816e-009
2.05251e-008
6.15393e-010
1.57585e-009
1.93016e-008
4.85833e-010
1.31289e-009
1.82868e-008
3.61009e-010
1.0888e-009
1.74532e-008
2.43424e-010
9.01302e-010
1.67739e-008
1.35861e-010
7.46857e-010
1.62239e-008
4.08288e-011
6.21463e-010
1.57801e-008
-3.98293e-011
5.2103e-010
1.54224e-008
-1.05492e-010
4.41534e-010
1.51332e-008
-1.56442e-010
3.79268e-010
1.48968e-008
-1.93752e-010
3.30958e-010
1.47007e-008
-2.19085e-010
2.93707e-010
1.45346e-008
-2.34349e-010
2.65029e-010
1.43906e-008
-2.41464e-010
2.42856e-010
1.42627e-008
-2.42229e-010
2.25517e-010
1.41466e-008
-2.38233e-010
2.11709e-010
1.40392e-008
-2.30824e-010
2.0044e-010
1.39381e-008
-2.21101e-010
1.90976e-010
1.3842e-008
-2.0994e-010
1.82788e-010
1.37498e-008
-1.98021e-010
1.755e-010
1.36609e-008
-1.85857e-010
1.68857e-010
1.35748e-008
-1.73818e-010
1.62692e-010
1.34914e-008
-1.62163e-010
1.569e-010
1.34103e-008
-1.51058e-010
1.51414e-010
1.33316e-008
-1.40605e-010
1.46192e-010
1.32552e-008
-1.30851e-010
1.41208e-010
1.31809e-008
-1.21812e-010
1.36448e-010
1.31087e-008
-1.13474e-010
1.31901e-010
1.30386e-008
-1.05808e-010
1.27558e-010
1.29704e-008
-9.8773e-011
1.23412e-010
1.29042e-008
-9.232e-011
1.19449e-010
1.28399e-008
-8.63976e-011
1.15661e-010
1.27774e-008
-8.09608e-011
1.12049e-010
1.27167e-008
-7.59656e-011
1.08608e-010
1.26576e-008
-7.13695e-011
1.05328e-010
1.26001e-008
-6.71329e-011
1.02199e-010
1.25441e-008
-6.32193e-011
9.92108e-011
1.24897e-008
-5.9596e-011
9.63552e-011
1.24366e-008
-5.62333e-011
9.36235e-011
1.23849e-008
-5.3105e-011
9.10078e-011
1.23346e-008
-5.01877e-011
8.85009e-011
1.22854e-008
-4.7461e-011
8.6096e-011
1.22375e-008
-4.49071e-011
8.3787e-011
1.21907e-008
-4.25102e-011
8.15678e-011
1.21451e-008
-4.02564e-011
7.9433e-011
1.21005e-008
-3.81335e-011
7.73778e-011
1.20569e-008
-3.61308e-011
7.53974e-011
1.20144e-008
-3.42387e-011
7.34877e-011
1.19727e-008
-3.24486e-011
7.16447e-011
1.1932e-008
-3.07528e-011
6.9865e-011
1.18922e-008
-2.91445e-011
6.81454e-011
1.18532e-008
-2.76178e-011
6.64827e-011
1.18151e-008
-2.6167e-011
6.48742e-011
1.17777e-008
-2.47868e-011
6.33174e-011
1.17411e-008
-2.34729e-011
6.18107e-011
1.17053e-008
-2.22213e-011
6.03516e-011
1.16701e-008
-2.10282e-011
5.89383e-011
1.16357e-008
-1.989e-011
5.75686e-011
1.16019e-008
-1.88034e-011
5.62403e-011
1.15688e-008
-1.77653e-011
5.49521e-011
1.15362e-008
-1.67735e-011
5.37033e-011
1.15043e-008
-1.58259e-011
5.24925e-011
1.1473e-008
-1.49205e-011
5.13184e-011
1.14422e-008
-1.40552e-011
5.01794e-011
1.1412e-008
-1.32283e-011
4.90743e-011
1.13823e-008
-1.24379e-011
4.80018e-011
1.13531e-008
-1.16825e-011
4.69609e-011
1.13244e-008
-1.09605e-011
4.59502e-011
1.12962e-008
-1.02704e-011
4.49688e-011
1.12685e-008
-9.61079e-012
4.40155e-011
1.12412e-008
-8.98055e-012
4.30895e-011
1.12144e-008
-8.3784e-012
4.21897e-011
1.1188e-008
-7.80335e-012
4.13153e-011
1.1162e-008
-7.25436e-012
4.04653e-011
1.11364e-008
-6.73064e-012
3.9639e-011
1.11113e-008
-6.23138e-012
3.88356e-011
1.10865e-008
-5.75597e-012
3.80543e-011
1.10621e-008
-5.30378e-012
3.72942e-011
1.10381e-008
-4.87435e-012
3.65548e-011
1.10144e-008
-4.46709e-012
3.58354e-011
1.09911e-008
-4.08145e-012
3.51356e-011
1.09682e-008
-3.71648e-012
3.44549e-011
1.09455e-008
-3.37103e-012
3.37936e-011
1.09233e-008
-3.04257e-012
3.31522e-011
1.09013e-008
-2.72855e-012
3.25326e-011
1.08797e-008
-2.42056e-012
3.19354e-011
1.08583e-008
-2.11771e-012
3.13757e-011
1.08372e-008
-1.78495e-012
3.08213e-011
1.08162e-008
-1.4615e-012
3.04219e-011
1.07957e-008
-9.71571e-013
2.95879e-011
1.07745e-008
-6.02705e-013
3.00487e-011
1.07575e-008
3.64933e-013
2.43301e-011
1.30618e-012
3.31732e-011
4.50401e-008
1.74892e-010
3.15448e-009
4.12869e-008
4.97006e-010
3.98891e-009
3.76302e-008
7.03035e-010
3.92399e-009
3.4218e-008
7.92992e-010
3.66842e-009
3.11315e-008
8.09548e-010
3.32582e-009
2.84305e-008
7.75461e-010
2.91149e-009
2.61279e-008
7.02533e-010
2.47676e-009
2.42025e-008
6.06752e-010
2.06622e-009
2.2617e-008
5.01834e-010
1.69908e-009
2.1328e-008
3.94411e-010
1.38047e-009
2.02908e-008
2.87432e-010
1.11077e-009
1.94628e-008
1.83625e-010
8.87708e-010
1.88057e-008
8.60594e-011
7.06885e-010
1.82861e-008
-2.3925e-012
5.62809e-010
1.78758e-008
-7.94308e-011
4.49873e-010
1.75513e-008
-1.43574e-010
3.62669e-010
1.72929e-008
-1.94353e-010
2.96395e-010
1.70846e-008
-2.32274e-010
2.4683e-010
1.69137e-008
-2.58534e-010
2.10344e-010
1.67702e-008
-2.74725e-010
1.83897e-010
1.66463e-008
-2.82596e-010
1.64983e-010
1.65363e-008
-2.83872e-010
1.51587e-010
1.64361e-008
-2.80135e-010
1.42128e-010
1.63426e-008
-2.72757e-010
1.35397e-010
1.62538e-008
-2.62878e-010
1.30502e-010
1.61685e-008
-2.5142e-010
1.26794e-010
1.60858e-008
-2.39103e-010
1.23819e-010
1.60052e-008
-2.26469e-010
1.21254e-010
1.59264e-008
-2.13913e-010
1.18897e-010
1.58494e-008
-2.01714e-010
1.16635e-010
1.5774e-008
-1.90055e-010
1.14405e-010
1.57003e-008
-1.79046e-010
1.12174e-010
1.56283e-008
-1.68742e-010
1.09931e-010
1.55579e-008
-1.59158e-010
1.07677e-010
1.54893e-008
-1.50283e-010
1.05416e-010
1.54224e-008
-1.42085e-010
1.0316e-010
1.53572e-008
-1.34524e-010
1.00917e-010
1.52937e-008
-1.27553e-010
9.87046e-011
1.52319e-008
-1.21122e-010
9.65319e-011
1.51718e-008
-1.15182e-010
9.43955e-011
1.51132e-008
-1.09685e-010
9.22987e-011
1.50562e-008
-1.04588e-010
9.02463e-011
1.50007e-008
-9.98485e-011
8.82431e-011
1.49466e-008
-9.5432e-011
8.62919e-011
1.4894e-008
-9.13055e-011
8.43952e-011
1.48426e-008
-8.74402e-011
8.25541e-011
1.47926e-008
-8.38106e-011
8.07693e-011
1.47438e-008
-8.03944e-011
7.90405e-011
1.46961e-008
-7.71719e-011
7.73667e-011
1.46496e-008
-7.4126e-011
7.57464e-011
1.46041e-008
-7.12416e-011
7.41777e-011
1.45597e-008
-6.85055e-011
7.26586e-011
1.45163e-008
-6.5906e-011
7.11872e-011
1.44738e-008
-6.34328e-011
6.97613e-011
1.44323e-008
-6.10768e-011
6.8379e-011
1.43916e-008
-5.88297e-011
6.7038e-011
1.43518e-008
-5.66842e-011
6.57368e-011
1.43128e-008
-5.46336e-011
6.44735e-011
1.42747e-008
-5.26721e-011
6.32466e-011
1.42372e-008
-5.07943e-011
6.20543e-011
1.42005e-008
-4.89952e-011
6.08955e-011
1.41646e-008
-4.72701e-011
5.97689e-011
1.41293e-008
-4.56151e-011
5.86736e-011
1.40947e-008
-4.40264e-011
5.76081e-011
1.40607e-008
-4.25005e-011
5.65721e-011
1.40274e-008
-4.10343e-011
5.5565e-011
1.39947e-008
-3.9625e-011
5.45856e-011
1.39625e-008
-3.82698e-011
5.36319e-011
1.3931e-008
-3.6966e-011
5.27028e-011
1.39e-008
-3.57114e-011
5.17973e-011
1.38695e-008
-3.45038e-011
5.09146e-011
1.38396e-008
-3.33411e-011
5.00539e-011
1.38101e-008
-3.22213e-011
4.92146e-011
1.37812e-008
-3.11428e-011
4.8396e-011
1.37528e-008
-3.01039e-011
4.75973e-011
1.37248e-008
-2.91029e-011
4.68178e-011
1.36972e-008
-2.81385e-011
4.6057e-011
1.36702e-008
-2.72092e-011
4.53141e-011
1.36435e-008
-2.6314e-011
4.45885e-011
1.36173e-008
-2.54516e-011
4.38797e-011
1.35914e-008
-2.4621e-011
4.3187e-011
1.3566e-008
-2.38214e-011
4.251e-011
1.3541e-008
-2.30521e-011
4.18482e-011
1.35164e-008
-2.23123e-011
4.12009e-011
1.34921e-008
-2.16015e-011
4.05677e-011
1.34682e-008
-2.09194e-011
3.99482e-011
1.34446e-008
-2.02656e-011
3.93423e-011
1.34215e-008
-1.96397e-011
3.87497e-011
1.33986e-008
-1.90413e-011
3.81708e-011
1.33761e-008
-1.84696e-011
3.76064e-011
1.33539e-008
-1.79229e-011
3.70583e-011
1.33321e-008
-1.73995e-011
3.65297e-011
1.33105e-008
-1.68917e-011
3.60271e-011
1.32892e-008
-1.64002e-011
3.55631e-011
1.32682e-008
-1.5885e-011
3.51406e-011
1.32473e-008
-1.53925e-011
3.48491e-011
1.32266e-008
-1.46814e-011
3.43581e-011
1.32054e-008
-1.41382e-011
3.48109e-011
1.31878e-008
-1.25355e-011
3.05127e-011
-1.10042e-011
3.86108e-011
5.08425e-008
1.08614e-010
3.57537e-009
4.64922e-008
3.14707e-010
4.53256e-009
4.22649e-008
4.65011e-010
4.46538e-009
3.83381e-008
5.4676e-010
4.17297e-009
3.47938e-008
5.7268e-010
3.78118e-009
3.17031e-008
5.58977e-010
3.3072e-009
2.90855e-008
5.15698e-010
2.8044e-009
2.6917e-008
4.51845e-010
2.32335e-009
2.51533e-008
3.76043e-010
1.88952e-009
2.37416e-008
2.94087e-010
1.51204e-009
2.26265e-008
2.09391e-010
1.19314e-009
2.17543e-008
1.24831e-010
9.30971e-010
2.10762e-008
4.35178e-011
7.2054e-010
2.05503e-008
-3.15712e-011
5.55073e-010
2.01417e-008
-9.81158e-011
4.27322e-010
1.98224e-008
-1.54424e-010
3.30225e-010
1.95702e-008
-1.99692e-010
2.57595e-010
1.93678e-008
-2.33948e-010
2.04122e-010
1.92018e-008
-2.57908e-010
1.65408e-010
1.9062e-008
-2.72761e-010
1.37867e-010
1.89407e-008
-2.79932e-010
1.18604e-010
1.88323e-008
-2.80906e-010
1.05322e-010
1.8733e-008
-2.77087e-010
9.62339e-011
1.86399e-008
-2.69733e-010
9.00201e-011
1.85512e-008
-2.59925e-010
8.57284e-011
1.84657e-008
-2.48557e-010
8.26744e-011
1.83826e-008
-2.36337e-010
8.03744e-011
1.83014e-008
-2.23812e-010
7.8513e-011
1.82221e-008
-2.11381e-010
7.68795e-011
1.81444e-008
-1.99323e-010
7.53388e-011
1.80684e-008
-1.8782e-010
7.38215e-011
1.7994e-008
-1.76981e-010
7.22953e-011
1.79214e-008
-1.6686e-010
7.0753e-011
1.78505e-008
-1.57469e-010
6.91954e-011
1.77814e-008
-1.48794e-010
6.76321e-011
1.7714e-008
-1.40803e-010
6.60723e-011
1.76484e-008
-1.33451e-010
6.45268e-011
1.75845e-008
-1.26691e-010
6.30054e-011
1.75223e-008
-1.20472e-010
6.15144e-011
1.74618e-008
-1.14742e-010
6.00592e-011
1.74029e-008
-1.09454e-010
5.86455e-011
1.73457e-008
-1.04564e-010
5.72784e-011
1.72899e-008
-1.00031e-010
5.59611e-011
1.72356e-008
-9.5818e-011
5.46953e-011
1.71828e-008
-9.1892e-011
5.34815e-011
1.71312e-008
-8.82234e-011
5.23186e-011
1.7081e-008
-8.47864e-011
5.12071e-011
1.70321e-008
-8.15584e-011
5.01453e-011
1.69843e-008
-7.85193e-011
4.91319e-011
1.69377e-008
-7.56517e-011
4.81641e-011
1.68921e-008
-7.29403e-011
4.72394e-011
1.68476e-008
-7.03717e-011
4.63545e-011
1.68041e-008
-6.79338e-011
4.55068e-011
1.67616e-008
-6.56165e-011
4.46934e-011
1.672e-008
-6.34103e-011
4.39114e-011
1.66793e-008
-6.13072e-011
4.31586e-011
1.66395e-008
-5.92997e-011
4.24326e-011
1.66005e-008
-5.73814e-011
4.17318e-011
1.65624e-008
-5.55465e-011
4.10541e-011
1.6525e-008
-5.37896e-011
4.03981e-011
1.64883e-008
-5.21059e-011
3.97628e-011
1.64524e-008
-5.04912e-011
3.9147e-011
1.64172e-008
-4.89414e-011
3.85499e-011
1.63826e-008
-4.7453e-011
3.79705e-011
1.63487e-008
-4.60227e-011
3.74083e-011
1.63155e-008
-4.46475e-011
3.68623e-011
1.62829e-008
-4.33245e-011
3.63318e-011
1.62508e-008
-4.20512e-011
3.58157e-011
1.62194e-008
-4.08252e-011
3.53135e-011
1.61885e-008
-3.96443e-011
3.48244e-011
1.61582e-008
-3.85063e-011
3.43482e-011
1.61283e-008
-3.74095e-011
3.38841e-011
1.6099e-008
-3.6352e-011
3.34319e-011
1.60702e-008
-3.53323e-011
3.29909e-011
1.60419e-008
-3.43487e-011
3.25607e-011
1.60141e-008
-3.33999e-011
3.21407e-011
1.59867e-008
-3.24845e-011
3.17306e-011
1.59598e-008
-3.16015e-011
3.13298e-011
1.59333e-008
-3.07497e-011
3.0938e-011
1.59072e-008
-2.99282e-011
3.05546e-011
1.58815e-008
-2.91362e-011
3.01795e-011
1.58563e-008
-2.83729e-011
2.98122e-011
1.58314e-008
-2.76379e-011
2.94524e-011
1.58069e-008
-2.69308e-011
2.90998e-011
1.57828e-008
-2.62513e-011
2.87541e-011
1.57591e-008
-2.55994e-011
2.84153e-011
1.57357e-008
-2.49752e-011
2.80834e-011
1.57127e-008
-2.4379e-011
2.77585e-011
1.569e-008
-2.38112e-011
2.74414e-011
1.56677e-008
-2.32724e-011
2.71338e-011
1.56457e-008
-2.27627e-011
2.68389e-011
1.5624e-008
-2.22826e-011
2.65614e-011
1.56026e-008
-2.183e-011
2.63147e-011
1.55815e-008
-2.14053e-011
2.61081e-011
1.55607e-008
-2.09916e-011
2.59903e-011
1.55399e-008
-2.06031e-011
2.59726e-011
1.55193e-008
-2.01313e-011
2.60852e-011
1.54982e-008
-1.9716e-011
2.66489e-011
1.548e-008
-1.88921e-011
2.45923e-011
-1.80415e-011
3.12776e-011
5.74121e-008
5.67091e-011
4.04791e-009
5.24313e-008
1.54311e-010
5.14124e-009
4.75777e-008
2.40342e-010
5.07818e-009
4.30675e-008
2.99366e-010
4.75761e-009
3.89951e-008
3.23743e-010
4.3213e-009
3.5447e-008
3.20057e-010
3.78704e-009
3.24531e-008
2.9617e-010
3.21337e-009
2.99889e-008
2.57014e-010
2.65902e-009
2.80018e-008
2.06745e-010
2.15649e-009
2.64278e-008
1.49182e-010
1.71887e-009
2.52e-008
8.73648e-011
1.34985e-009
2.42533e-008
2.38074e-011
1.04766e-009
2.3529e-008
-3.8932e-011
8.06656e-010
2.29768e-008
-9.81491e-011
6.18819e-010
2.25548e-008
-1.51425e-010
4.7534e-010
2.22296e-008
-1.96987e-010
3.6778e-010
2.19753e-008
-2.3385e-010
2.88604e-010
2.17718e-008
-2.61781e-010
2.31394e-010
2.16042e-008
-2.8117e-010
1.90872e-010
2.14615e-008
-2.9285e-010
1.62731e-010
2.13359e-008
-2.9792e-010
1.43559e-010
2.12218e-008
-2.97577e-010
1.30696e-010
2.11155e-008
-2.92997e-010
1.22148e-010
2.10145e-008
-2.85253e-010
1.16444e-010
2.09174e-008
-2.75281e-010
1.12508e-010
2.08231e-008
-2.63872e-010
1.09595e-010
2.07313e-008
-2.51667e-010
1.07208e-010
2.06416e-008
-2.39165e-010
1.05031e-010
2.05542e-008
-2.26738e-010
1.02887e-010
2.04688e-008
-2.14644e-010
1.00672e-010
2.03858e-008
-2.03055e-010
9.83553e-011
2.03049e-008
-1.92073e-010
9.59296e-011
2.02264e-008
-1.81751e-010
9.34157e-011
2.01502e-008
-1.72105e-010
9.08371e-011
2.00763e-008
-1.63123e-010
8.8221e-011
2.00046e-008
-1.54778e-010
8.55935e-011
1.99352e-008
-1.47035e-010
8.29759e-011
1.9868e-008
-1.39851e-010
8.03892e-011
1.98028e-008
-1.33182e-010
7.78481e-011
1.97397e-008
-1.26986e-010
7.53673e-011
1.96785e-008
-1.21221e-010
7.29566e-011
1.96192e-008
-1.15848e-010
7.06245e-011
1.95617e-008
-1.10833e-010
6.83776e-011
1.95058e-008
-1.06143e-010
6.62188e-011
1.94516e-008
-1.01749e-010
6.4153e-011
1.93988e-008
-9.76253e-011
6.21803e-011
1.93475e-008
-9.37473e-011
6.03014e-011
1.92975e-008
-9.00946e-011
5.85125e-011
1.92488e-008
-8.66482e-011
5.68115e-011
1.92014e-008
-8.33913e-011
5.51939e-011
1.91551e-008
-8.03089e-011
5.36561e-011
1.91099e-008
-7.73875e-011
5.21936e-011
1.90658e-008
-7.46152e-011
5.0802e-011
1.90227e-008
-7.19813e-011
4.9477e-011
1.89805e-008
-6.94761e-011
4.82143e-011
1.89393e-008
-6.70911e-011
4.701e-011
1.88989e-008
-6.48184e-011
4.58606e-011
1.88594e-008
-6.2651e-011
4.47627e-011
1.88208e-008
-6.05825e-011
4.37134e-011
1.87829e-008
-5.8607e-011
4.27098e-011
1.87457e-008
-5.67191e-011
4.17496e-011
1.87093e-008
-5.49139e-011
4.08305e-011
1.86736e-008
-5.31868e-011
3.99507e-011
1.86386e-008
-5.15336e-011
3.9108e-011
1.86042e-008
-4.99505e-011
3.83009e-011
1.85705e-008
-4.84336e-011
3.75272e-011
1.85374e-008
-4.69798e-011
3.67857e-011
1.85048e-008
-4.55858e-011
3.60742e-011
1.84729e-008
-4.42485e-011
3.53917e-011
1.84415e-008
-4.29654e-011
3.47363e-011
1.84106e-008
-4.17338e-011
3.4107e-011
1.83802e-008
-4.05513e-011
3.35021e-011
1.83504e-008
-3.94156e-011
3.29207e-011
1.8321e-008
-3.83247e-011
3.23612e-011
1.82921e-008
-3.72765e-011
3.18227e-011
1.82637e-008
-3.62693e-011
3.13038e-011
1.82357e-008
-3.53013e-011
3.08036e-011
1.82081e-008
-3.43711e-011
3.03208e-011
1.8181e-008
-3.34771e-011
2.98549e-011
1.81543e-008
-3.26181e-011
2.94044e-011
1.8128e-008
-3.1793e-011
2.89689e-011
1.81021e-008
-3.10009e-011
2.85472e-011
1.80765e-008
-3.02411e-011
2.81391e-011
1.80514e-008
-2.9513e-011
2.77432e-011
1.80266e-008
-2.88163e-011
2.73594e-011
1.80021e-008
-2.81511e-011
2.69869e-011
1.79781e-008
-2.75176e-011
2.66258e-011
1.79543e-008
-2.69168e-011
2.62756e-011
1.79309e-008
-2.63497e-011
2.59376e-011
1.79079e-008
-2.58183e-011
2.56129e-011
1.78851e-008
-2.53255e-011
2.53061e-011
1.78627e-008
-2.48744e-011
2.50223e-011
1.78406e-008
-2.44716e-011
2.47796e-011
1.78187e-008
-2.41185e-011
2.45861e-011
1.7797e-008
-2.38395e-011
2.45193e-011
1.77755e-008
-2.36003e-011
2.45491e-011
1.7754e-008
-2.35444e-011
2.49128e-011
1.77321e-008
-2.33446e-011
2.5482e-011
1.77126e-008
-2.38173e-011
2.45151e-011
-2.30389e-011
3.03321e-011
6.48395e-008
1.89508e-011
4.57907e-009
5.91743e-008
4.34671e-012
5.81512e-009
5.36433e-008
3.25977e-011
5.73878e-009
4.85132e-008
6.36095e-011
5.36586e-009
4.38972e-008
8.08931e-011
4.85884e-009
3.98898e-008
8.69097e-011
4.24043e-009
3.6523e-008
8.51809e-011
3.57779e-009
3.37664e-008
7.56656e-011
2.93795e-009
3.15565e-008
5.78374e-011
2.35881e-009
2.98174e-008
3.22273e-011
1.85604e-009
2.84712e-008
-8.80775e-014
1.43371e-009
2.7443e-008
-3.75848e-011
1.08952e-009
2.66651e-008
-7.80888e-011
8.16986e-010
2.60792e-008
-1.19037e-010
6.06845e-010
2.56369e-008
-1.57862e-010
4.48712e-010
2.53e-008
-1.92444e-010
3.32499e-010
2.50384e-008
-2.21335e-010
2.49145e-010
2.48295e-008
-2.43816e-010
1.90941e-010
2.46566e-008
-2.59805e-010
1.51563e-010
2.45075e-008
-2.69704e-010
1.25908e-010
2.43738e-008
-2.74252e-010
1.09974e-010
2.42498e-008
-2.74342e-010
1.00683e-010
2.41319e-008
-2.70873e-010
9.57319e-011
2.40179e-008
-2.64684e-010
9.34526e-011
2.39064e-008
-2.56531e-010
9.26774e-011
2.3797e-008
-2.47073e-010
9.26337e-011
2.36895e-008
-2.36862e-010
9.28254e-011
2.35837e-008
-2.26334e-010
9.29507e-011
2.348e-008
-2.15806e-010
9.28552e-011
2.33784e-008
-2.05502e-010
9.24666e-011
2.32792e-008
-1.95568e-010
9.17831e-011
2.31824e-008
-1.86092e-010
9.08232e-011
2.30881e-008
-1.7712e-010
8.96288e-011
2.29964e-008
-1.68668e-010
8.82422e-011
2.29073e-008
-1.6073e-010
8.67046e-011
2.28207e-008
-1.53287e-010
8.50556e-011
2.27366e-008
-1.46314e-010
8.3325e-011
2.2655e-008
-1.39779e-010
8.1543e-011