/*--------------------------------*- C++ -*----------------------------------*\
| =========                 |                                                 |
| \\      /  F ield         | OpenFOAM: The Open Source CFD Toolbox           |
|  \\    /   O peration     | Version:  5.x                                   |
|   \\  /    A nd           | Web:      www.OpenFOAM.org                      |
|    \\/     M anipulation  |                                                 |
\*---------------------------------------------------------------------------*/
/*   Windows 32 and 64 bit porting by blueCAPE: http://www.bluecape.com.pt   *\
|  Based on Windows porting (2.0.x v4) by Symscape: http://www.symscape.com   |
\*---------------------------------------------------------------------------*/
FoamFile
{
    version     2.0;
    format      ascii;
    class       volVectorField;
    location    "60";
    object      U;
}
// * * * * * * * * * * * * * * * * * * * * * * * * * * * * * * * * * * * * * //

dimensions      [0 1 -1 0 0 0 0];

internalField   nonuniform List<vector> 
10000
(
(9.21828 0.142611 0.142611)
(7.91791 0.263414 0.263414)
(6.54731 0.261152 0.261153)
(5.18108 0.207074 0.207074)
(4.06814 0.139856 0.139856)
(3.28093 0.0811036 0.0811026)
(2.73913 0.0418276 0.0418268)
(2.352 0.0215478 0.021548)
(2.06429 0.0135077 0.0135086)
(1.84187 0.0109974 0.0109981)
(1.6627 0.00993596 0.00993619)
(1.51545 0.008687 0.00868699)
(1.39535 0.00705407 0.00705415)
(1.29947 0.00535355 0.00535391)
(1.22453 0.00387265 0.00387326)
(1.16697 0.00272439 0.00272502)
(1.12329 0.00190304 0.0019034)
(1.09038 0.00135095 0.00135084)
(1.06557 0.000998749 0.000998117)
(1.04673 0.000782493 0.000781491)
(1.03219 0.000654057 0.000652954)
(1.0207 0.000580367 0.000579454)
(1.01132 0.000539282 0.000538783)
(1.00337 0.000516182 0.000516193)
(0.996348 0.000501693 0.000502167)
(0.989925 0.000490248 0.000491032)
(0.983863 0.000478837 0.000479719)
(0.978009 0.0004662 0.000466977)
(0.972265 0.000452089 0.000452606)
(0.966575 0.000436788 0.000436966)
(0.960907 0.000420791 0.000420624)
(0.95525 0.000404567 0.000404115)
(0.949601 0.000388494 0.000387863)
(0.943966 0.000372902 0.000372219)
(0.938351 0.000358079 0.000357468)
(0.932769 0.00034418 0.000343738)
(0.927229 0.000331337 0.00033112)
(0.921742 0.00031961 0.000319632)
(0.916318 0.000308983 0.000309219)
(0.910962 0.000299465 0.000299869)
(0.905682 0.000290985 0.000291495)
(0.900481 0.000283452 0.000284)
(0.895362 0.000276741 0.000277265)
(0.890328 0.000270747 0.000271197)
(0.885379 0.000265355 0.000265697)
(0.880517 0.000260463 0.000260685)
(0.875742 0.00025598 0.000256082)
(0.871053 0.000251823 0.000251817)
(0.866451 0.00024792 0.000247828)
(0.861934 0.000244209 0.000244055)
(0.857502 0.000240643 0.000240451)
(0.853152 0.000237187 0.000236981)
(0.848885 0.000233814 0.00023361)
(0.844699 0.000230512 0.00023032)
(0.840591 0.000227259 0.000227086)
(0.836562 0.000224054 0.000223902)
(0.832608 0.000220887 0.000220755)
(0.82873 0.000217765 0.00021765)
(0.824924 0.000214668 0.000214568)
(0.821189 0.000211609 0.000211519)
(0.817524 0.000208595 0.000208514)
(0.813927 0.000205633 0.000205558)
(0.810396 0.000202705 0.000202637)
(0.806929 0.000199811 0.000199751)
(0.803525 0.000196944 0.000196894)
(0.800183 0.000194108 0.000194072)
(0.796901 0.0001913 0.000191281)
(0.793677 0.000188528 0.000188527)
(0.79051 0.000185789 0.000185806)
(0.787398 0.00018309 0.000183122)
(0.784341 0.000180425 0.000180468)
(0.781336 0.000177801 0.000177851)
(0.778382 0.000175213 0.000175266)
(0.775479 0.000172667 0.00017272)
(0.772624 0.000170155 0.000170204)
(0.769818 0.00016768 0.000167725)
(0.767057 0.000165236 0.000165275)
(0.764343 0.000162832 0.000162863)
(0.761673 0.000160458 0.000160481)
(0.759046 0.00015812 0.000158134)
(0.756461 0.000155809 0.000155814)
(0.753919 0.000153534 0.000153529)
(0.751417 0.000151283 0.00015127)
(0.748954 0.00014906 0.00014904)
(0.746531 0.000146856 0.000146831)
(0.744147 0.000144679 0.000144649)
(0.7418 0.000142522 0.000142489)
(0.73949 0.000140392 0.000140359)
(0.737217 0.000138289 0.00013826)
(0.73498 0.00013625 0.000136225)
(0.732777 0.000134255 0.000134237)
(0.730608 0.000132485 0.000132474)
(0.728473 0.000130547 0.000130545)
(0.726361 0.00012996 0.000129966)
(0.724294 0.000126065 0.000126081)
(0.7222 0.000132897 0.000132923)
(0.72028 0.000105373 0.000105407)
(0.718014 0.000162444 0.000162488)
(0.716906 -4.86316e-005 -4.85952e-005)
(0.714312 0.000268764 0.000268785)
(9.75175 0.21395 0.152348)
(9.37557 0.410488 0.308901)
(8.77828 0.446067 0.344108)
(7.9595 0.420665 0.319269)
(7.09242 0.36611 0.266382)
(6.28617 0.295751 0.204261)
(5.57002 0.22596 0.14708)
(4.94991 0.168181 0.101932)
(4.42814 0.125204 0.0694624)
(3.99909 0.0947166 0.0472637)
(3.6498 0.0730429 0.032388)
(3.3659 0.0569427 0.0223938)
(3.13525 0.0442635 0.0156081)
(2.94818 0.0339121 0.0110109)
(2.79674 0.0254329 0.00797873)
(2.67428 0.0186065 0.00607719)
(2.5752 0.0132634 0.00496471)
(2.4948 0.00922433 0.0043694)
(2.42918 0.00628008 0.00408082)
(2.37519 0.00421625 0.00395271)
(2.3303 0.00283638 0.00388738)
(2.29248 0.0019737 0.00382458)
(2.26015 0.00149203 0.00373212)
(2.23205 0.00128263 0.00359755)
(2.20723 0.0012601 0.00342112)
(2.18492 0.00135887 0.00321037)
(2.16457 0.00152949 0.00297596)
(2.14574 0.00173587 0.00272918)
(2.12811 0.00195261 0.00248019)
(2.11144 0.00216263 0.00223742)
(2.09553 0.00235525 0.00200712)
(2.08027 0.00252433 0.00179348)
(2.06555 0.00266745 0.00159901)
(2.0513 0.00278376 0.00142471)
(2.03747 0.00287338 0.00127031)
(2.02402 0.00293788 0.00113496)
(2.01092 0.00297992 0.00101748)
(1.99816 0.00300244 0.000916396)
(1.98572 0.00300834 0.000830039)
(1.97359 0.00300051 0.000756817)
(1.96175 0.00298152 0.000695143)
(1.9502 0.00295354 0.000643523)
(1.93893 0.00291841 0.000600514)
(1.92792 0.00287768 0.000564838)
(1.91717 0.00283265 0.000535328)
(1.90667 0.0027844 0.000510979)
(1.89642 0.00273385 0.000490882)
(1.8864 0.00268173 0.000474259)
(1.87661 0.00262867 0.000460438)
(1.86704 0.00257514 0.000448858)
(1.85768 0.00252153 0.000439039)
(1.84854 0.00246817 0.000430602)
(1.83959 0.00241531 0.000423237)
(1.83084 0.00236318 0.000416718)
(1.82228 0.0023119 0.000410838)
(1.81391 0.00226163 0.000405458)
(1.80571 0.00221244 0.000400457)
(1.79768 0.00216442 0.000395765)
(1.78982 0.00211759 0.000391298)
(1.78212 0.00207197 0.000387019)
(1.77458 0.00202763 0.000382869)
(1.76719 0.00198459 0.000378837)
(1.75994 0.00194283 0.000374877)
(1.75284 0.00190233 0.000370981)
(1.74588 0.00186304 0.000367117)
(1.73905 0.00182492 0.00036328)
(1.73235 0.00178796 0.000359435)
(1.72578 0.00175212 0.000355579)
(1.71933 0.00171739 0.000351697)
(1.713 0.00168373 0.00034781)
(1.70678 0.00165111 0.000343909)
(1.70068 0.00161949 0.000340014)
(1.69468 0.00158882 0.00033612)
(1.68879 0.00155907 0.000332247)
(1.68301 0.00153021 0.00032837)
(1.67732 0.00150218 0.000324491)
(1.67173 0.00147496 0.000320596)
(1.66624 0.0014485 0.000316709)
(1.66083 0.00142278 0.000312819)
(1.65552 0.00139776 0.000308939)
(1.6503 0.00137339 0.000305064)
(1.64516 0.00134965 0.000301217)
(1.6401 0.00132649 0.000297385)
(1.63513 0.00130389 0.000293576)
(1.63023 0.00128179 0.000289779)
(1.62542 0.00126018 0.000286014)
(1.62068 0.00123901 0.000282264)
(1.61601 0.00121829 0.000278547)
(1.61142 0.00119801 0.000274855)
(1.6069 0.00117825 0.000271244)
(1.60246 0.0011591 0.000267663)
(1.59808 0.00114085 0.000264346)
(1.59376 0.00112347 0.000260712)
(1.58951 0.00110861 0.000258927)
(1.58533 0.00109213 0.000252346)
(1.58113 0.0010885 0.000261625)
(1.57721 0.00104291 0.000219022)
(1.57272 0.00109829 0.000310101)
(1.57007 0.000737462 -7.8313e-005)
(1.56432 0.00113257 0.000503229)
(9.61219 0.105462 0.149839)
(9.02223 0.214554 0.295428)
(8.42086 0.249293 0.320303)
(7.76672 0.262642 0.295571)
(7.13224 0.261463 0.252713)
(6.5519 0.241208 0.202767)
(6.01975 0.208484 0.153658)
(5.53268 0.172928 0.110703)
(5.09798 0.139657 0.0758017)
(4.72142 0.110044 0.0488519)
(4.40216 0.0841992 0.0289898)
(4.1352 0.0619791 0.0150422)
(3.91424 0.0431955 0.00575664)
(3.73272 0.0276617 -3.49872e-006)
(3.5842 0.0151794 -0.00317538)
(3.46254 0.00548489 -0.00451324)
(3.36234 -0.00177719 -0.00462785)
(3.27925 -0.00700483 -0.00399734)
(3.20973 -0.0105738 -0.00297248)
(3.15083 -0.0128239 -0.00179567)
(3.10023 -0.0140473 -0.000624737)
(3.0561 -0.0144892 0.000444541)
(3.01701 -0.0143519 0.00136108)
(2.98191 -0.0138 0.00210515)
(2.94998 -0.0129654 0.00267791)
(2.9206 -0.0119524 0.00309348)
(2.89331 -0.010842 0.00337258)
(2.86777 -0.00969554 0.00353844)
(2.84371 -0.00855803 0.00361384)
(2.82092 -0.00746077 0.00361958)
(2.79925 -0.00642437 0.00357347)
(2.77857 -0.0054613 0.0034902)
(2.75878 -0.00457759 0.00338138)
(2.7398 -0.00377521 0.00325597)
(2.72156 -0.00305356 0.00312106)
(2.704 -0.00240939 0.002982)
(2.68707 -0.00183746 0.00284269)
(2.67072 -0.00133179 0.00270586)
(2.65492 -0.000886197 0.00257342)
(2.63963 -0.000494307 0.00244689)
(2.62481 -0.00015001 0.00232719)
(2.61045 0.000152353 0.00221477)
(2.5965 0.000417861 0.00210969)
(2.58296 0.000651025 0.00201182)
(2.56979 0.000855815 0.00192087)
(2.55698 0.0010357 0.00183649)
(2.54451 0.00119374 0.0017582)
(2.53236 0.00133257 0.00168549)
(2.52052 0.00145449 0.00161784)
(2.50898 0.00156149 0.00155476)
(2.49771 0.0016553 0.00149574)
(2.48671 0.00173743 0.00144035)
(2.47596 0.00180921 0.00138821)
(2.46547 0.00187179 0.00133903)
(2.4552 0.00192618 0.00129252)
(2.44517 0.00197329 0.00124848)
(2.43535 0.00201389 0.00120669)
(2.42574 0.00204869 0.00116705)
(2.41634 0.00207838 0.00112941)
(2.40713 0.00210348 0.00109365)
(2.3981 0.0021244 0.00105961)
(2.38926 0.0021415 0.00102723)
(2.38059 0.00215513 0.000996395)
(2.37209 0.00216564 0.000967035)
(2.36376 0.00217334 0.000939055)
(2.35558 0.00217848 0.000912394)
(2.34756 0.00218129 0.000886939)
(2.33969 0.002182 0.000862619)
(2.33196 0.00218082 0.000839332)
(2.32437 0.00217793 0.000817041)
(2.31691 0.00217349 0.000795665)
(2.30959 0.00216764 0.000775181)
(2.3024 0.00216049 0.000755538)
(2.29532 0.00215217 0.000736735)
(2.28837 0.00214276 0.000718695)
(2.28154 0.00213236 0.000701368)
(2.27482 0.00212103 0.00068468)
(2.26821 0.00210887 0.000668624)
(2.2617 0.00209592 0.000653138)
(2.25531 0.00208225 0.00063821)
(2.24901 0.00206789 0.0006238)
(2.24282 0.00205289 0.000609927)
(2.23672 0.00203729 0.000596544)
(2.23072 0.00202109 0.000583643)
(2.22481 0.00200431 0.000571176)
(2.21899 0.00198698 0.000559156)
(2.21326 0.00196911 0.000547536)
(2.20762 0.00195075 0.000536316)
(2.20207 0.00193198 0.000525471)
(2.1966 0.00191295 0.000515068)
(2.19121 0.00189395 0.000505058)
(2.1859 0.00187541 0.000495663)
(2.18067 0.00185799 0.000486383)
(2.1755 0.00184292 0.000479358)
(2.17043 0.00182964 0.00046807)
(2.16534 0.00182554 0.00047413)
(2.16056 0.00180016 0.00042068)
(2.15507 0.00183749 0.000525676)
(2.15188 0.00160425 -9.61338e-006)
(2.14431 0.00186328 0.000808019)
(9.60257 0.0605131 0.149741)
(8.94958 0.150664 0.296614)
(8.2729 0.197434 0.321922)
(7.55486 0.216053 0.296634)
(6.87914 0.216718 0.252758)
(6.29161 0.202684 0.201281)
(5.78704 0.179248 0.150463)
(5.35128 0.152474 0.10622)
(4.97824 0.125678 0.0706109)
(4.66417 0.0998575 0.0433031)
(4.40309 0.0754038 0.0231845)
(4.18785 0.0527644 0.00896878)
(4.01173 0.0323905 -0.000625357)
(3.86872 0.0146438 -0.00672945)
(3.75319 -0.000244317 -0.0102621)
(3.66007 -0.0122244 -0.0119395)
(3.58499 -0.0214418 -0.012312)
(3.52401 -0.0281835 -0.0118037)
(3.47382 -0.0327933 -0.0107445)
(3.43175 -0.0356243 -0.00938294)
(3.39569 -0.0370194 -0.00789854)
(3.36403 -0.0372953 -0.00641614)
(3.33557 -0.0367305 -0.00501799)
(3.30946 -0.0355603 -0.00375372)
(3.28506 -0.033977 -0.0026479)
(3.26198 -0.0321335 -0.00170686)
(3.23991 -0.0301491 -0.000924588)
(3.21867 -0.0281136 -0.000287534)
(3.19815 -0.0260933 0.000221891)
(3.17826 -0.024134 0.000622483)
(3.15895 -0.022266 0.000932077)
(3.1402 -0.0205077 0.00116669)
(3.12199 -0.0188685 0.00134016)
(3.10429 -0.0173514 0.00146422)
(3.08709 -0.0159547 0.0015487)
(3.07039 -0.0146735 0.00160167)
(3.05415 -0.0135009 0.00163)
(3.03839 -0.0124288 0.00163881)
(3.02307 -0.0114488 0.00163254)
(3.00818 -0.0105525 0.00161589)
(2.99371 -0.00973242 0.00159267)
(2.97964 -0.00898112 0.00156559)
(2.96595 -0.00829184 0.00153653)
(2.95264 -0.00765837 0.0015068)
(2.93967 -0.0070751 0.00147731)
(2.92705 -0.006537 0.00144867)
(2.91475 -0.00603957 0.00142121)
(2.90277 -0.00557882 0.00139503)
(2.89109 -0.00515123 0.00137009)
(2.8797 -0.00475371 0.00134625)
(2.86858 -0.00438353 0.00132329)
(2.85773 -0.00403828 0.00130097)
(2.84713 -0.00371582 0.00127912)
(2.83679 -0.00341425 0.0012576)
(2.82667 -0.00313187 0.00123632)
(2.81679 -0.00286715 0.00121523)
(2.80712 -0.00261872 0.00119433)
(2.79767 -0.00238535 0.00117364)
(2.78841 -0.00216585 0.00115317)
(2.77936 -0.00195921 0.00113291)
(2.7705 -0.0017646 0.00111291)
(2.76181 -0.00158126 0.00109325)
(2.75331 -0.00140846 0.00107397)
(2.74497 -0.00124551 0.00105511)
(2.7368 -0.00109176 0.00103664)
(2.72879 -0.000946594 0.00101853)
(2.72093 -0.000809462 0.00100071)
(2.71322 -0.000679902 0.0009832)
(2.70566 -0.000557498 0.000965974)
(2.69823 -0.000441871 0.000949027)
(2.69094 -0.00033266 0.000932347)
(2.68377 -0.000229536 0.000915939)
(2.67674 -0.000132178 0.000899832)
(2.66982 -4.02913e-005 0.000884056)
(2.66303 4.64053e-005 0.000868592)
(2.65635 0.000128165 0.000853396)
(2.64978 0.000205235 0.00083843)
(2.64332 0.000277838 0.000823683)
(2.63697 0.000346185 0.000809134)
(2.63072 0.000410463 0.000794776)
(2.62457 0.000470847 0.000780622)
(2.61852 0.000527492 0.000766706)
(2.61256 0.000580538 0.000753031)
(2.60669 0.000630099 0.000739597)
(2.60092 0.000676285 0.000726405)
(2.59523 0.000719194 0.00071347)
(2.58964 0.000758929 0.000700791)
(2.58412 0.000795606 0.000688375)
(2.57869 0.000829399 0.000676257)
(2.57334 0.000860546 0.000664516)
(2.56807 0.000889495 0.000653193)
(2.56287 0.000916756 0.000642512)
(2.55776 0.000943691 0.000632281)
(2.5527 0.000970803 0.00062439)
(2.54773 0.0010026 0.000613858)
(2.54274 0.00103579 0.000619694)
(2.53804 0.00108413 0.000571842)
(2.53261 0.00113257 0.000676091)
(2.52951 0.00117962 0.000141425)
(2.52173 0.00136318 0.00098101)
(9.59977 0.0406526 0.149825)
(8.92612 0.110292 0.298258)
(8.21811 0.152564 0.324682)
(7.47109 0.169422 0.298862)
(6.77092 0.170115 0.253401)
(6.16408 0.160177 0.199865)
(5.64901 0.143119 0.146845)
(5.21359 0.12245 0.100661)
(4.85058 0.100672 0.0636727)
(4.55371 0.0788767 0.0355989)
(4.31432 0.0575239 0.0152527)
(4.12277 0.0370606 0.00124349)
(3.9703 0.0180103 -0.00784078)
(3.84948 0.000881591 -0.0132861)
(3.75407 -0.0138932 -0.0161515)
(3.67872 -0.0260891 -0.017221)
(3.61894 -0.0356742 -0.0170685)
(3.57108 -0.0427737 -0.0161232)
(3.53218 -0.047636 -0.0147049)
(3.49991 -0.0505819 -0.0130442)
(3.47242 -0.0519584 -0.0113023)
(3.44833 -0.0521022 -0.00958902)
(3.42664 -0.0513174 -0.00797657)
(3.40661 -0.0498645 -0.00650908)
(3.38775 -0.0479577 -0.00520799)
(3.36971 -0.0457679 -0.00407793)
(3.35228 -0.0434276 -0.00311188)
(3.33533 -0.0410362 -0.00229653)
(3.31878 -0.0386653 -0.00161517)
(3.30259 -0.0363652 -0.00104932)
(3.28675 -0.0341684 -0.000581546)
(3.27125 -0.0320946 -0.000196612)
(3.2561 -0.0301536 0.000118199)
(3.24131 -0.0283479 0.000373474)
(3.22687 -0.0266752 0.000577973)
(3.21278 -0.0251301 0.000739192)
(3.19906 -0.0237049 0.000863627)
(3.18569 -0.0223908 0.000957627)
(3.17267 -0.0211783 0.00102688)
(3.15999 -0.0200585 0.00107557)
(3.14765 -0.0190229 0.00110748)
(3.13564 -0.0180635 0.00112622)
(3.12395 -0.0171728 0.00113502)
(3.11257 -0.016344 0.00113661)
(3.10148 -0.0155711 0.00113319)
(3.09067 -0.0148485 0.00112646)
(3.08014 -0.0141714 0.00111763)
(3.06986 -0.0135354 0.00110749)
(3.05984 -0.0129368 0.00109648)
(3.05005 -0.0123721 0.00108481)
(3.0405 -0.0118385 0.00107252)
(3.03116 -0.0113334 0.00105959)
(3.02203 -0.0108545 0.00104601)
(3.01311 -0.0103998 0.00103181)
(3.00438 -0.00996755 0.00101706)
(2.99584 -0.00955607 0.00100185)
(2.98747 -0.00916396 0.000986329)
(2.97929 -0.00878991 0.000970667)
(2.97127 -0.00843278 0.000954997)
(2.96341 -0.00809156 0.000939449)
(2.95571 -0.00776524 0.000924172)
(2.94816 -0.00745293 0.00090931)
(2.94075 -0.00715382 0.000894971)
(2.93349 -0.00686717 0.000881229)
(2.92636 -0.00659231 0.000868147)
(2.91937 -0.00632859 0.000855778)
(2.91251 -0.00607544 0.000844051)
(2.90577 -0.00583235 0.000832799)
(2.89915 -0.00559889 0.000821872)
(2.89265 -0.00537462 0.000811192)
(2.88626 -0.00515916 0.000800723)
(2.87998 -0.00495211 0.000790475)
(2.87381 -0.00475311 0.000780479)
(2.86774 -0.00456185 0.000770759)
(2.86178 -0.00437798 0.000761286)
(2.85591 -0.00420122 0.000752003)
(2.85014 -0.00403128 0.000742857)
(2.84447 -0.00386791 0.000733818)
(2.83888 -0.00371087 0.000724855)
(2.83339 -0.00355993 0.000715958)
(2.82798 -0.0034149 0.000707142)
(2.82265 -0.00327559 0.000698435)
(2.81741 -0.00314186 0.000689847)
(2.81225 -0.00301357 0.000681386)
(2.80717 -0.0028906 0.00067306)
(2.80216 -0.00277284 0.00066489)
(2.79723 -0.00266021 0.000656882)
(2.79237 -0.00255259 0.000649057)
(2.78759 -0.00244984 0.00064146)
(2.78287 -0.00235176 0.00063418)
(2.77823 -0.00225793 0.000627327)
(2.77365 -0.00216792 0.000621143)
(2.76914 -0.00208016 0.000615873)
(2.76469 -0.00199466 0.000612898)
(2.76031 -0.00190398 0.00061041)
(2.75591 -0.00181692 0.000620718)
(2.75172 -0.00169157 0.000599801)
(2.74695 -0.0015961 0.000690997)
(2.74408 -0.00133739 0.000308768)
(2.73706 -0.0010502 0.000959758)
(9.59776 0.0266142 0.149834)
(8.91039 0.0729622 0.299004)
(8.18174 0.104506 0.326018)
(7.41695 0.1206 0.300036)
(6.70481 0.125488 0.254115)
(6.08965 0.122356 0.20004)
(5.56946 0.113001 0.146195)
(5.13308 0.0993701 0.0988799)
(4.77344 0.0833754 0.0607238)
(4.48355 0.0662683 0.0317227)
(4.25379 0.0487713 0.0108307)
(4.07351 0.0314731 -0.00332863)
(3.93298 0.0149799 -0.0122393)
(3.82389 -0.000144754 -0.0173073)
(3.73923 -0.013483 -0.019707)
(3.6733 -0.0247326 -0.0203146)
(3.62152 -0.0337543 -0.0197645)
(3.58031 -0.0405774 -0.0185114)
(3.54688 -0.0453676 -0.0168744)
(3.5191 -0.0483775 -0.0150716)
(3.49534 -0.0498993 -0.0132479)
(3.4744 -0.0502293 -0.011498)
(3.45542 -0.0496442 -0.0098817)
(3.43781 -0.0483882 -0.00843184)
(3.42115 -0.0466681 -0.00715946)
(3.40517 -0.0446529 -0.00606013)
(3.38968 -0.0424763 -0.00512041)
(3.37459 -0.0402397 -0.0043213)
(3.35983 -0.0380172 -0.00364298)
(3.34539 -0.0358608 -0.00306739)
(3.33125 -0.0338045 -0.00257858)
(3.31742 -0.0318685 -0.00216322)
(3.3039 -0.0300626 -0.00181031)
(3.2907 -0.0283892 -0.00151125)
(3.27782 -0.0268456 -0.00125893)
(3.26526 -0.0254256 -0.00104744)
(3.25303 -0.024121 -0.000871454)
(3.24111 -0.0229229 -0.000725985)
(3.22952 -0.0218218 -0.000606433)
(3.21824 -0.0208085 -0.000508458)
(3.20726 -0.0198739 -0.000427983)
(3.19658 -0.0190096 -0.000361223)
(3.18618 -0.0182081 -0.000304954)
(3.17606 -0.0174626 -0.000256531)
(3.16621 -0.0167669 -0.000213915)
(3.15661 -0.0161157 -0.000175615)
(3.14725 -0.0155044 -0.000140524)
(3.13813 -0.0149289 -0.000108056)
(3.12923 -0.0143857 -7.79277e-005)
(3.12055 -0.0138718 -5.01463e-005)
(3.11207 -0.0133845 -2.47912e-005)
(3.10379 -0.0129215 -2.00016e-006)
(3.0957 -0.0124808 1.81784e-005)
(3.08779 -0.0120606 3.57704e-005)
(3.08006 -0.0116595 5.08962e-005)
(3.07249 -0.011276 6.37608e-005)
(3.06509 -0.010909 7.46311e-005)
(3.05784 -0.0105573 8.3812e-005)
(3.05074 -0.01022 9.15959e-005)
(3.04379 -0.00989619 9.82739e-005)
(3.03698 -0.00958511 0.000104137)
(3.0303 -0.00928603 0.000109449)
(3.02376 -0.0089983 0.000114436)
(3.01734 -0.00872132 0.00011925)
(3.01105 -0.00845457 0.000124006)
(3.00487 -0.00819755 0.000128726)
(2.99882 -0.00794982 0.000133377)
(2.99287 -0.00771096 0.00013786)
(2.98703 -0.00748057 0.000142124)
(2.98129 -0.00725826 0.000146128)
(2.97566 -0.00704369 0.000149882)
(2.97013 -0.00683653 0.000153398)
(2.96469 -0.00663647 0.00015672)
(2.95935 -0.00644324 0.000159859)
(2.95409 -0.00625658 0.000162807)
(2.94893 -0.00607625 0.000165516)
(2.94385 -0.00590203 0.000167959)
(2.93885 -0.00573372 0.000170112)
(2.93393 -0.00557113 0.000171977)
(2.9291 -0.0054141 0.000173561)
(2.92434 -0.00526248 0.000174906)
(2.91965 -0.00511617 0.000176051)
(2.91504 -0.00497505 0.000177038)
(2.9105 -0.00483906 0.000177888)
(2.90604 -0.00470815 0.000178639)
(2.90164 -0.00458228 0.000179319)
(2.8973 -0.00446145 0.000179968)
(2.89303 -0.00434568 0.000180613)
(2.88883 -0.00423495 0.00018133)
(2.88469 -0.00412926 0.000182215)
(2.88062 -0.00402847 0.000183474)
(2.8766 -0.00393244 0.000185365)
(2.87264 -0.00384022 0.000188605)
(2.86873 -0.00375193 0.000194029)
(2.86488 -0.00366191 0.000203265)
(2.86103 -0.00357628 0.000221396)
(2.85731 -0.00346012 0.000233736)
(2.85319 -0.00336519 0.000312436)
(2.85046 -0.00312573 0.000110037)
(2.8445 -0.00286374 0.000545264)
(9.59645 0.0156598 0.149785)
(8.90133 0.0426348 0.299462)
(8.16057 0.0623153 0.327329)
(7.38255 0.0736209 0.302075)
(6.65829 0.0774987 0.25661)
(6.03286 0.0756384 0.202613)
(5.50499 0.069445 0.148377)
(5.06443 0.0600993 0.100347)
(4.70424 0.0486716 0.0614592)
(4.41677 0.0359806 0.0319409)
(4.19156 0.0225995 0.0108031)
(4.01721 0.0090209 -0.0033741)
(3.88336 -0.00422129 -0.0121454)
(3.78117 -0.0165811 -0.0169788)
(3.70324 -0.0275922 -0.0190899)
(3.64348 -0.0369306 -0.0193913)
(3.59712 -0.0444302 -0.0185462)
(3.56045 -0.0500743 -0.0170292)
(3.53068 -0.053966 -0.0151736)
(3.50575 -0.0562907 -0.0132069)
(3.48414 -0.0572805 -0.0112779)
(3.46478 -0.0571832 -0.00947895)
(3.44694 -0.0562392 -0.00786081)
(3.43013 -0.0546664 -0.00644391)
(3.41404 -0.052654 -0.00522994)
(3.39848 -0.0503602 -0.00420693)
(3.38334 -0.0479124 -0.00335456)
(3.36857 -0.0454097 -0.00264851)
(3.35416 -0.0429256 -0.00206434)
(3.34009 -0.0405119 -0.00158071)
(3.32638 -0.038203 -0.00117968)
(3.31303 -0.0360197 -0.000847393)
(3.30006 -0.0339725 -0.000572964)
(3.28746 -0.0320645 -0.000348171)
(3.27524 -0.0302936 -0.000166423)
(3.26339 -0.0286544 -2.20406e-005)
(3.25191 -0.0271394 9.00268e-005)
(3.24079 -0.0257399 0.000174776)
(3.23001 -0.024447 0.000236864)
(3.21957 -0.0232515 0.000280896)
(3.20945 -0.0221448 0.000311039)
(3.19965 -0.0211188 0.000331017)
(3.19014 -0.020166 0.000343983)
(3.18091 -0.0192795 0.000352387)
(3.17194 -0.0184532 0.000358204)
(3.16323 -0.0176815 0.00036265)
(3.15476 -0.0169594 0.000366428)
(3.14652 -0.0162824 0.000369692)
(3.13849 -0.0156465 0.000372431)
(3.13066 -0.0150481 0.000374414)
(3.12303 -0.0144841 0.000375379)
(3.11559 -0.0139515 0.000375077)
(3.10832 -0.013448 0.000373329)
(3.10122 -0.0129712 0.000370097)
(3.09428 -0.0125191 0.000365417)
(3.08749 -0.0120899 0.000359471)
(3.08085 -0.0116819 0.000352481)
(3.07435 -0.0112938 0.00034474)
(3.06798 -0.0109241 0.000336521)
(3.06175 -0.0105716 0.000328101)
(3.05564 -0.0102353 0.000319745)
(3.04966 -0.00991414 0.000311682)
(3.04379 -0.00960725 0.000304106)
(3.03803 -0.00931376 0.000297129)
(3.03238 -0.00903291 0.00029082)
(3.02684 -0.00876399 0.000285158)
(3.02139 -0.00850634 0.000280087)
(3.01605 -0.00825933 0.000275506)
(3.0108 -0.0080224 0.000271343)
(3.00564 -0.00779502 0.000267527)
(3.00056 -0.00757671 0.00026402)
(2.99558 -0.00736702 0.000260783)
(2.99068 -0.00716554 0.000257793)
(2.98586 -0.00697187 0.000255008)
(2.98111 -0.00678566 0.000252384)
(2.97644 -0.00660658 0.000249859)
(2.97185 -0.00643432 0.000247394)
(2.96733 -0.0062686 0.000244954)
(2.96288 -0.00610917 0.000242527)
(2.95849 -0.00595581 0.000240104)
(2.95418 -0.00580831 0.000237708)
(2.94992 -0.00566653 0.000235353)
(2.94574 -0.00553032 0.000233065)
(2.94161 -0.00539959 0.000230846)
(2.93754 -0.00527428 0.00022872)
(2.93353 -0.00515438 0.000226697)
(2.92958 -0.00503993 0.000224807)
(2.92569 -0.00493102 0.00022307)
(2.92185 -0.00482779 0.000221558)
(2.91807 -0.00473047 0.000220361)
(2.91434 -0.00463933 0.000219713)
(2.91066 -0.00455469 0.000219881)
(2.90704 -0.00447696 0.000221772)
(2.90346 -0.00440627 0.000226004)
(2.89992 -0.00434327 0.000235727)
(2.89639 -0.00428601 0.00025289)
(2.89295 -0.00423765 0.00027609)
(2.8892 -0.00418018 0.000344603)
(2.88658 -0.00414742 0.000220947)
(2.88107 -0.003981 0.000529073)
(9.59532 0.00522639 0.149689)
(8.89531 0.0186774 0.299224)
(8.14821 0.0331847 0.326757)
(7.36386 0.0439047 0.300813)
(6.63544 0.0488504 0.254442)
(6.00895 0.0491009 0.199525)
(5.48258 0.0461732 0.144455)
(5.04537 0.040921 0.0957375)
(4.68985 0.0338797 0.056382)
(4.40788 0.025565 0.0266464)
(4.18852 0.0164463 0.00548799)
(4.02017 0.00691285 -0.00859636)
(3.89226 -0.00265458 -0.0171979)
(3.79574 -0.0118557 -0.0217864)
(3.72305 -0.0203044 -0.0235829)
(3.66799 -0.0276909 -0.0235225)
(3.62568 -0.0338189 -0.0222937)
(3.59238 -0.0386104 -0.0203961)
(3.56532 -0.0420895 -0.0181848)
(3.54243 -0.0443589 -0.0159043)
(3.52227 -0.0455719 -0.0137111)
(3.50384 -0.0459042 -0.0116963)
(3.4865 -0.0455334 -0.00990481)
(3.46983 -0.0446269 -0.00834989)
(3.45361 -0.0433346 -0.0070239)
(3.43771 -0.0417852 -0.00590547)
(3.42208 -0.0400842 -0.00496693)
(3.4067 -0.0383136 -0.00417952)
(3.3916 -0.0365341 -0.00351632)
(3.3768 -0.0347885 -0.00295493)
(3.36233 -0.0331052 -0.0024772)
(3.3482 -0.0315016 -0.00206969)
(3.33443 -0.0299868 -0.00172211)
(3.32103 -0.0285638 -0.00142663)
(3.308 -0.0272316 -0.00117697)
(3.29534 -0.0259865 -0.000967467)
(3.28305 -0.0248233 -0.000793093)
(3.27111 -0.0237362 -0.000648731)
(3.25952 -0.0227191 -0.000529657)
(3.24826 -0.0217661 -0.000431226)
(3.23733 -0.0208715 -0.00034928)
(3.22671 -0.0200302 -0.000280176)
(3.21638 -0.0192376 -0.000220841)
(3.20633 -0.0184892 -0.000168952)
(3.19655 -0.0177815 -0.000122677)
(3.18702 -0.017111 -8.08986e-005)
(3.17774 -0.0164746 -4.28769e-005)
(3.16868 -0.0158699 -8.29962e-006)
(3.15985 -0.0152943 2.2961e-005)
(3.15122 -0.0147458 5.08875e-005)
(3.14279 -0.0142225 7.53989e-005)
(3.13455 -0.0137228 9.64965e-005)
(3.12649 -0.013245 0.0001142)
(3.1186 -0.012788 0.000128695)
(3.11088 -0.0123506 0.000140189)
(3.10332 -0.0119315 0.000149013)
(3.09591 -0.01153 0.000155504)
(3.08865 -0.011145 0.000160044)
(3.08153 -0.0107757 0.000162995)
(3.07454 -0.0104214 0.0001647)
(3.06769 -0.0100815 0.000165482)
(3.06096 -0.00975517 0.000165605)
(3.05435 -0.00944188 0.0001653)
(3.04787 -0.00914106 0.000164729)
(3.04149 -0.00885217 0.000164011)
(3.03523 -0.00857469 0.000163202)
(3.02907 -0.00830815 0.000162314)
(3.02301 -0.0080521 0.000161345)
(3.01706 -0.00780609 0.000160277)
(3.0112 -0.00756973 0.000159123)
(3.00543 -0.00734263 0.000157885)
(2.99975 -0.00712443 0.000156586)
(2.99416 -0.00691476 0.000155227)
(2.98866 -0.00671331 0.000153821)
(2.98324 -0.00651976 0.000152353)
(2.9779 -0.00633381 0.000150821)
(2.97263 -0.00615517 0.000149222)
(2.96745 -0.00598359 0.000147566)
(2.96233 -0.00581884 0.000145866)
(2.95729 -0.00566071 0.000144138)
(2.95232 -0.005509 0.0001424)
(2.94742 -0.00536358 0.000140666)
(2.94258 -0.00522431 0.000138953)
(2.93782 -0.00509113 0.00013727)
(2.93311 -0.00496399 0.000135634)
(2.92847 -0.00484293 0.000134063)
(2.92389 -0.00472805 0.000132575)
(2.91937 -0.00461957 0.000131201)
(2.9149 -0.00451782 0.000129994)
(2.9105 -0.00442329 0.000129053)
(2.90615 -0.0043368 0.00012856)
(2.90186 -0.00425921 0.000128814)
(2.89762 -0.00419263 0.000130435)
(2.89343 -0.00413746 0.000134456)
(2.88929 -0.004102 0.000141791)
(2.88515 -0.00407607 0.000159533)
(2.88116 -0.00410835 0.00016597)
(2.87673 -0.00410711 0.000253372)
(2.8739 -0.00433764 3.64513e-006)
(2.8676 -0.0043902 0.000509257)
(9.60678 -0.0201414 0.149834)
(8.93641 -0.0425731 0.301082)
(8.20785 -0.0474936 0.331512)
(7.42675 -0.0447945 0.308224)
(6.69212 -0.0405863 0.263485)
(6.05486 -0.0362595 0.209235)
(5.51507 -0.0321291 0.154068)
(5.06334 -0.0289517 0.104635)
(4.69433 -0.0275135 0.0641958)
(4.40164 -0.0281639 0.0333483)
(4.17504 -0.030819 0.0113188)
(4.00266 -0.035085 -0.00331817)
(3.87341 -0.0403984 -0.0122215)
(3.77761 -0.0461247 -0.0169653)
(3.70697 -0.051668 -0.0188447)
(3.6546 -0.0565552 -0.0188412)
(3.61506 -0.0604747 -0.0176764)
(3.58423 -0.0632764 -0.015874)
(3.55909 -0.0649415 -0.0138025)
(3.53749 -0.0655518 -0.011708)
(3.51796 -0.0652552 -0.00974015)
(3.49957 -0.064219 -0.00797939)
(3.48173 -0.0626024 -0.00645982)
(3.46412 -0.0605514 -0.00518316)
(3.44657 -0.058199 -0.00413161)
(3.42903 -0.0556645 -0.00327557)
(3.4115 -0.0530492 -0.00258129)
(3.39402 -0.0504313 -0.00201665)
(3.37663 -0.0478659 -0.00155362)
(3.3594 -0.0453899 -0.00117025)
(3.34236 -0.0430266 -0.000849511)
(3.32554 -0.0407889 -0.000579376)
(3.30897 -0.0386824 -0.000351045)
(3.29266 -0.0367071 -0.00015806)
(3.27664 -0.0348598 4.47053e-006)
(3.2609 -0.0331349 0.000140895)
(3.24545 -0.0315256 0.000254856)
(3.23028 -0.0300246 0.000349962)
(3.21541 -0.0286243 0.000429434)
(3.20082 -0.0273173 0.000496235)
(3.18652 -0.0260962 0.00055302)
(3.17248 -0.0249544 0.000601824)
(3.15872 -0.0238853 0.000644418)
(3.14523 -0.0228829 0.000681863)
(3.13199 -0.0219418 0.000715043)
(3.11899 -0.0210568 0.000744335)
(3.10625 -0.0202233 0.000770006)
(3.09373 -0.019437 0.00079212)
(3.08145 -0.0186942 0.000810663)
(3.06939 -0.0179914 0.000825685)
(3.05754 -0.0173256 0.000837186)
(3.04591 -0.016694 0.000845364)
(3.03448 -0.0160941 0.000850385)
(3.02326 -0.0155236 0.000852589)
(3.01222 -0.0149808 0.000852298)
(3.00138 -0.0144636 0.000849895)
(2.99072 -0.0139705 0.000845755)
(2.98025 -0.0135001 0.0008402)
(2.96995 -0.0130509 0.000833579)
(2.95983 -0.0126217 0.000826129)
(2.94987 -0.0122114 0.000818134)
(2.94008 -0.011819 0.000809744)
(2.93045 -0.0114434 0.000801151)
(2.92098 -0.0110838 0.000792425)
(2.91167 -0.0107393 0.000783664)
(2.9025 -0.0104092 0.000774885)
(2.89348 -0.0100927 0.000766126)
(2.8846 -0.00978914 0.000757395)
(2.87587 -0.00949795 0.000748706)
(2.86727 -0.00921852 0.000740077)
(2.85881 -0.00895032 0.000731525)
(2.85048 -0.00869283 0.000723074)
(2.84228 -0.00844559 0.000714743)
(2.8342 -0.00820814 0.000706544)
(2.82625 -0.00798006 0.000698491)
(2.81842 -0.00776095 0.000690581)
(2.81071 -0.00755044 0.000682823)
(2.80311 -0.00734819 0.0006752)
(2.79563 -0.00715388 0.000667731)
(2.78827 -0.00696723 0.000660396)
(2.78101 -0.00678798 0.000653211)
(2.77385 -0.00661592 0.000646144)
(2.76681 -0.00645085 0.000639199)
(2.75986 -0.00629264 0.000632336)
(2.75302 -0.00614122 0.000625558)
(2.74628 -0.00599657 0.000618832)
(2.73964 -0.00585879 0.000612169)