/*--------------------------------*- C++ -*----------------------------------*\
| =========                 |                                                 |
| \\      /  F ield         | OpenFOAM: The Open Source CFD Toolbox           |
|  \\    /   O peration     | Version:  5.x                                   |
|   \\  /    A nd           | Web:      www.OpenFOAM.org                      |
|    \\/     M anipulation  |                                                 |
\*---------------------------------------------------------------------------*/
/*   Windows 32 and 64 bit porting by blueCAPE: http://www.bluecape.com.pt   *\
|  Based on Windows porting (2.0.x v4) by Symscape: http://www.symscape.com   |
\*---------------------------------------------------------------------------*/
FoamFile
{
    version     2.0;
    format      ascii;
    class       volScalarField;
    location    "63";
    object      p;
}
// * * * * * * * * * * * * * * * * * * * * * * * * * * * * * * * * * * * * * //

dimensions      [0 2 -2 0 0 0 0];

internalField   nonuniform List<scalar> 
10000
(
72.6182
64.868
59.7796
57.2912
55.2305
53.1837
51.405
49.942
48.6947
47.5917
46.6085
45.7322
44.9464
44.2322
43.5717
42.9495
42.3526
41.7711
41.1981
40.6285
40.0593
39.4887
38.916
38.3408
37.7635
37.1844
36.604
36.023
35.442
34.8614
34.2818
33.7036
33.1271
32.5526
31.9804
31.4106
30.8435
30.2792
29.7176
29.159
28.6033
28.0506
27.5009
26.9541
26.4104
25.8697
25.3319
24.7971
24.2652
23.7362
23.2101
22.6868
22.1664
21.6487
21.1337
20.6214
20.1118
19.6048
19.1003
18.5984
18.099
17.6021
17.1076
16.6155
16.1258
15.6383
15.1531
14.6702
14.1895
13.711
13.2345
12.7602
12.288
11.8178
11.3496
10.8834
10.4192
9.95682
9.49636
9.03775
8.58097
8.12598
7.67277
7.2213
6.77155
6.32349
5.87708
5.43232
4.98917
4.5476
4.10759
3.66912
3.23217
2.7967
2.36273
1.93017
1.49921
1.06922
0.641791
0.212347
69.4375
63.514
59.2679
57.0634
55.1668
53.2009
51.4354
49.9597
48.6985
47.5865
46.5994
45.7229
44.9386
44.2263
43.5675
42.9463
42.3501
41.7691
41.1963
40.6268
40.0577
39.4873
38.9146
38.3396
37.7624
37.1834
36.6031
36.0223
35.4413
34.8609
34.2814
33.7032
33.1268
32.5524
31.9803
31.4106
30.8435
30.2792
29.7177
29.1591
28.6034
28.0507
27.501
26.9542
26.4105
25.8698
25.332
24.7972
24.2653
23.7363
23.2102
22.6869
22.1664
21.6487
21.1337
20.6214
20.1118
19.6048
19.1003
18.5984
18.0991
17.6021
17.1076
16.6155
16.1257
15.6383
15.1531
14.6702
14.1895
13.7109
13.2345
12.7602
12.288
11.8178
11.3496
10.8834
10.4191
9.95678
9.49632
9.03771
8.58093
8.12594
7.67273
7.22126
6.77151
6.32344
5.87704
5.43228
4.98913
4.54756
4.10755
3.66908
3.23213
2.79666
2.36269
1.93012
1.4992
1.06915
0.642131
0.211915
67.8628
63.1354
59.2913
57.0421
55.1652
53.2635
51.5218
50.0387
48.7663
47.6477
46.6571
45.7782
44.9912
44.2753
43.6122
42.9864
42.3856
41.8
41.2228
40.6495
40.0768
39.5032
38.9278
38.3504
37.7711
37.1903
36.6085
36.0264
35.4443
34.863
34.2827
33.704
33.1271
32.5523
31.9798
31.4099
30.8426
30.2781
29.7165
29.1578
28.6021
28.0494
27.4996
26.9529
26.4092
25.8685
25.3307
24.7959
24.2641
23.7351
23.209
22.6858
22.1653
21.6477
21.1327
20.6205
20.1109
19.6039
19.0995
18.5976
18.0982
17.6013
17.1069
16.6148
16.125
15.6376
15.1525
14.6696
14.1889
13.7103
13.2339
12.7597
12.2874
11.8173
11.3491
10.8829
10.4187
9.95632
9.49587
9.03727
8.5805
8.12553
7.67233
7.22087
6.77112
6.32307
5.87668
5.43192
4.98878
4.54722
4.10722
3.66876
3.23181
2.79634
2.36238
1.9298
1.49893
1.06882
0.642399
0.211105
66.8592
62.5194
58.9638
56.8138
55.0277
53.2208
51.534
50.0729
48.8126
47.705
46.7234
45.8503
45.0663
44.3509
43.6861
43.057
42.452
41.8619
41.28
40.7019
40.1247
39.5467
38.9672
38.3859
37.803
37.219
36.6343
36.0495
35.4652
34.8818
34.2997
33.7193
33.1409
32.5648
31.9912
31.4203
30.8521
30.2868
29.7245
29.1651
28.6088
28.0555
27.5053
26.9581
26.414
25.8729
25.3348
24.7997
24.2676
23.7383
23.212
22.6885
22.1679
21.65
21.1349
20.6224
20.1127
19.6056
19.101
18.599
18.0995
17.6025
17.108
16.6158
16.126
15.6384
15.1532
14.6702
14.1895
13.7109
13.2345
12.7601
12.2879
11.8176
11.3494
10.8832
10.4189
9.95654
9.49606
9.03744
8.58064
8.12564
7.67242
7.22094
6.77118
6.32311
5.87671
5.43194
4.98878
4.54722
4.10721
3.66873
3.23177
2.79629
2.3623
1.9297
1.49882
1.06867
0.642464
0.210616
66.0637
61.8749
58.5895
56.619
54.9299
53.1911
51.5491
50.1117
48.8658
47.7704
46.7996
45.9349
45.1561
44.443
43.7776
43.1459
42.5366
41.9412
41.3535
40.7693
40.1861
39.6023
39.0173
38.431
37.8436
37.2554
36.6671
36.079
35.4917
34.9057
34.3213
33.7389
33.1587
32.581
32.0061
31.4339
30.8646
30.2983
29.7351
29.175
28.618
28.0641
27.5133
26.9656
26.421
25.8795
25.3411
24.8056
24.2731
23.7436
23.217
22.6933
22.1724
21.6543
21.139
20.6264
20.1164
19.6091
19.1044
18.6023
18.1026
17.6055
17.1108
16.6185
16.1285
15.6409
15.1556
14.6725
14.1916
13.7129
13.2364
12.762
12.2896
11.8193
11.351
10.8847
10.4204
9.95795
9.49741
9.03872
8.58187
8.12681
7.67354
7.22201
6.7722
6.32408
5.87763
5.43283
4.98963
4.54802
4.10798
3.66947
3.23246
2.79694
2.36289
1.93024
1.49923
1.06905
0.642385
0.210712
65.4541
61.365
58.263
56.4331
54.8205
53.1348
51.5366
50.1308
48.9069
47.8288
46.8725
46.0191
45.2482
44.5393
43.8751
43.2419
42.629
42.0287
41.4352
40.8449
40.2556
39.666
39.0755
38.4841
37.892
37.2996
36.7074
36.1159
35.5256
34.9369
34.35
33.7655
33.1834
32.604
32.0275
31.4539
30.8834
30.316
29.7517
29.1907
28.6328
28.0781
27.5266
26.9782
26.433
25.8909
25.3519
24.816
24.283
23.7531
23.2261
22.7019
22.1807
21.6623
21.1466
20.6337
20.1235
19.6159
19.1109
18.6085
18.1087
17.6113
17.1164
16.6239
16.1337
15.6459
15.1604
14.6772
14.1962
13.7173
13.2407
12.7661
12.2936
11.8232
11.3548
10.8884
10.4239
9.96138
9.50073
9.04195
8.58501
8.12987
7.67651
7.22491
6.77502
6.32684
5.88032
5.43545
4.99219
4.55053
4.11043
3.67186
3.2348
2.79922
2.36509
1.93237
1.50115
1.07091
0.643392
0.211865
65.0231
60.9938
57.9844
56.2397
54.6905
53.0545
51.4977
50.1238
48.9236
47.8642
46.9233
46.0821
45.3198
44.6161
43.9537
43.3197
42.7039
42.0991
41.5003
40.9042
40.3089
39.7136
39.1176
38.5212
37.9245
37.328
36.7322
36.1376
35.5445
34.9533
34.3645
33.7781
33.1945
32.6138
32.0361
31.4616
30.8902
30.3221
29.7573
29.1956
28.6373
28.0822
27.5303
26.9817
26.4362
25.8938
25.3546
24.8185
24.2854
23.7552
23.2281
22.7038
22.1825
21.6639
21.1482
20.6352
20.1249
19.6172
19.1122
18.6097
18.1098
17.6124
17.1174
16.6248
16.1347
15.6468
15.1613
14.678
14.1969
13.7181
13.2413
12.7667
12.2942
11.8238
11.3553
10.8889
10.4244
9.96184
9.50117
9.04236
8.5854
8.13024
7.67686
7.22524
6.77534
6.32714
5.88062
5.43574
4.99248
4.55081
4.11071
3.67215
3.23509
2.79952
2.36538
1.93265
1.50135
1.07108
0.64316
0.211937
64.7667
60.7845
57.8339
56.1516
54.6537
53.0523
51.5196
50.1653
48.9817
47.9365
47.0078
46.1769
45.4223
44.7233
44.0627
43.4277
42.8087
42.199
41.594
40.9912
40.3889
39.7865
39.1838
38.5809
37.9783
37.3765
36.7758
36.1767
35.5796
34.985
34.3929
33.8037
33.2176
32.6347
32.055
31.4787
30.9057
30.3361
29.7699
29.2072
28.6478
28.0917
27.539
26.9895
26.4434
25.9004
25.3606
24.8239
24.2903
23.7598
23.2322
22.7076
22.1859
21.6671
21.1511
20.6378
20.1273
19.6194
19.1142
18.6116
18.1115
17.6139
17.1188
16.6261
16.1358
15.6479
15.1622
14.6788
14.1977
13.7188
13.242
12.7673
12.2948
11.8243
11.3558
10.8893
10.4248
9.96217
9.50147
9.04264
8.58565
8.13047
7.67708
7.22544
6.77553
6.32733
5.8808
5.43592
4.99267
4.55101
4.11093
3.67239
3.23537
2.79984
2.36578
1.93311
1.50198
1.0717
0.644255
0.212049
64.7466
60.6094
57.5916
55.9493
54.511
52.9496
51.4438
50.1127
48.9496
47.9212
47.0061
46.1861
45.44
44.747
44.0901
43.4566
42.8374
42.2263
41.6191
41.0135
40.4083
39.803
39.1974
38.592
37.987
37.3831
36.7807
36.1801
35.5818
34.9861
34.3932
33.8033
33.2165
32.633
32.0529
31.4762
30.9028
30.333
29.7665
29.2035
28.6439
28.0877
27.5348
26.9852
26.4389
25.8958
25.3558
24.8191
24.2854
23.7548
23.2271
22.7025
22.1807
21.6618
21.1457
20.6325
20.1219
19.614
19.1087
18.6061
18.106
17.6084
17.1133
16.6206
16.1303
15.6424
15.1568
14.6734
14.1923
13.7134
13.2366
12.762
12.2894
11.819
11.3505
10.8841
10.4196
9.95703
9.49638
9.03759
8.58065
8.12552
7.67218
7.2206
6.77075
6.3226
5.87614
5.43133
4.98815
4.54658
4.10659
3.66816
3.23128
2.7959
2.36205
1.92959
1.49895
1.06888
0.643244
0.210447
65.9132
61.3377
57.9971
56.2162
54.7098
53.0966
51.5544
50.2061
49.0411
48.0193
47.1142
46.304
45.5654
44.8765
44.2199
43.5833
42.9583
42.3395
41.7233
41.1083
40.4937
39.8792
39.2649
38.6512
38.0386
37.4277
36.8191
36.2131
35.61
35.01
34.4133
33.8201
33.2305
32.6445
32.0622
31.4836
30.9087
30.3374
29.7698
29.2058
28.6454
28.0884
27.535
26.9849
26.4381
25.8947
25.3545
24.8175
24.2837
23.7529
23.2252
22.7004
22.1786
21.6597
21.1436
20.6303
20.1197
19.6119
19.1067
18.6041
18.104
17.6065
17.1114
16.6188
16.1286
15.6407
15.1551
14.6718
14.1908
13.7119
13.2352
12.7607
12.2882
11.8178
11.3494
10.883
10.4186
9.95608
9.49549
9.03676
8.57988
8.12481
7.67153
7.22001
6.77021
6.32213
5.87572
5.43098
4.98787
4.54637
4.10646
3.66813
3.23135
2.7961
2.36241
1.93016
1.49965
1.06986
0.643477
0.211731
69.4375
63.5139
59.2679
57.0634
55.1668
53.2009
51.4354
49.9597
48.6985
47.5865
46.5994
45.7229
44.9386
44.2263
43.5675
42.9463
42.3501
41.7691
41.1963
40.6268
40.0577
39.4873
38.9146
38.3396
37.7624
37.1834
36.6031
36.0223
35.4413
34.8609
34.2814
33.7032
33.1268
32.5524
31.9803
31.4106
30.8435
30.2792
29.7177
29.1591
28.6034
28.0507
27.501
26.9542
26.4105
25.8698
25.332
24.7972
24.2653
23.7363
23.2102
22.6869
22.1664
21.6487
21.1337
20.6214
20.1118
19.6048
19.1003
18.5984
18.0991
17.6021
17.1076
16.6155
16.1257
15.6383
15.1531
14.6702
14.1895
13.7109
13.2345
12.7602
12.288
11.8178
11.3496
10.8834
10.4191
9.95678
9.49632
9.03771
8.58093
8.12594
7.67273
7.22126
6.77151
6.32344
5.87704
5.43228
4.98913
4.54756
4.10755
3.66908
3.23213
2.79666
2.36269
1.93012
1.4992
1.06915
0.642131
0.211915
66.1433
62.0825
58.7825
56.8889
55.1577
53.2742
51.519
50.0269
48.7508
47.6301
46.638
45.758
44.9704
44.2544
43.5915
42.9663
42.3663
41.782
41.2063
40.6345
40.0636
39.4918
38.9182
38.3425
37.7648
37.1856
36.6052
36.0243
35.4434
34.863
34.2835
33.7054
33.1291
32.5547
31.9826
31.4129
30.8458
30.2814
29.7199
29.1612
28.6055
28.0527
27.5029
26.9562
26.4124
25.8716
25.3337
24.7988
24.2669
23.7378
23.2116
22.6883
22.1678
21.65
21.135
20.6226
20.1129
19.6059
19.1014
18.5995
18.1
17.6031
17.1085
16.6164
16.1266
15.6391
15.1539
14.6709
14.1902
13.7116
13.2352
12.7609
12.2886
11.8184
11.3502
10.884
10.4197
9.95731
9.49683
9.03821
8.58141
8.12641
7.67319
7.2217
6.77194
6.32386
5.87745
5.43268
4.98951
4.54794
4.10792
3.66944
3.23248
2.797
2.36303
1.93043
1.49957
1.06943
0.643236
0.211108
64.6039
61.7938
58.924
56.9353
55.1777
53.3558
51.6409
50.1553
48.8743
47.7469
46.747
45.8585
45.0622
44.3373
43.6654
43.0314
42.4232
41.8312
41.2486
40.6707
40.0943
39.5177
38.9398
38.3605
37.7797
37.1977
36.6151
36.0323
35.4497
34.8679
34.2873
33.7083
33.1312
32.5562
31.9836
31.4135
30.8462
30.2816
29.7199
29.1611
28.6052
28.0524
27.5026
26.9557
26.4119
25.8711
25.3333
24.7984
24.2665
23.7374
23.2113
22.6879
22.1674
21.6497
21.1347
20.6224
20.1127
19.6057
19.1012
18.5993
18.0999
17.6029
17.1084
16.6162
16.1265
15.639
15.1538
14.6709
14.1901
13.7116
13.2351
12.7608
12.2886
11.8184
11.3502
10.8839
10.4197
9.95731
9.49683
9.03821
8.58142
8.12642
7.6732
7.22172
6.77196
6.32388
5.87747
5.4327
4.98954
4.54796
4.10795
3.66947
3.2325
2.79702
2.36304
1.93043
1.49964
1.06943
0.644394
0.209564
63.6118
61.1631
58.5689
56.6733
55.0125
53.3032
51.6584
50.2008
48.9325
47.815
46.823
45.9396
45.1459
44.4215
43.7482
43.1113
42.499
41.9024
41.3147
40.7316
40.1501
39.5684
38.9858
38.402
37.817
37.2313
36.6452
36.0593
35.474
34.8898
34.307
33.7261
33.1473
32.5708
31.9969
31.4257
30.8573
30.2918
29.7293
29.1698
28.6133
28.0598
27.5095
26.9621
26.4179
25.8766
25.3384
24.8032
24.2709
23.7416
23.2152
22.6916
22.1708
21.6529
21.1376
20.6251
20.1153
19.6081
19.1035
18.6014
18.1019
17.6048
17.1101
16.6179
16.128
15.6405
15.1552
14.6721
14.1913
13.7127
13.2362
12.7618
12.2895
11.8193
11.351
10.8847
10.4204
9.95801
9.49749
9.03883
8.58201
8.12698
7.67373
7.22222
6.77243
6.32433
5.8779
5.43311
4.98993
4.54834
4.1083
3.6698
3.23282
2.79731
2.3633
1.93066
1.49984
1.06961
0.644915
0.208985
62.8148
60.4991
58.1796
56.4785
54.9212
53.2824
51.6851
50.2529
48.999
47.8928
46.9096
46.032
45.241
44.5168
43.8416
43.201
42.5837
41.9814
41.3876
40.7982
40.2106
39.6231
39.0351
38.4463
37.8569
37.267
36.6772
36.088
35.4997
34.9128
34.3277
33.7447
33.1641
32.586
32.0107
31.4382
30.8688
30.3023
29.7389
29.1786
28.6215
28.0675
27.5166
26.9688
26.4241
25.8825
25.3439
24.8084
24.2758
23.7463
23.2196
22.6958
22.1749
21.6567
21.1413
20.6287
20.1187
19.6113
19.1066
18.6044
18.1047
17.6075
17.1128
16.6204
16.1304
15.6428
15.1574
14.6743
14.1934
13.7147
13.2381
12.7636
12.2912
11.8209
11.3526
10.8863
10.4219
9.95941
9.49883
9.04012
8.58324
8.12816
7.67486
7.2233
6.77347
6.32533
5.87886
5.43403
4.99081
4.54918
4.10911
3.67058
3.23355
2.798
2.36392
1.93122
1.50021
1.06998
0.644453
0.209564
62.204
59.9789
57.8445
56.2903
54.8101
53.2246
51.6744
50.2776
49.0475
47.9585
46.9887
46.1207
45.3358
44.6146
43.9395
43.2968
42.6757
42.0683
41.4688
40.8735
40.2799
39.6868
39.0935
38.4998
37.9058
37.3118
36.7183
36.1257
35.5344
34.9448
34.3572
33.772
33.1894
32.6096
32.0327
31.4588
30.888
30.3203
29.7559
29.1946
28.6366
28.0817
27.53
26.9815
26.4362
25.894
25.3548
24.8188
24.2857
23.7557
23.2286
22.7044
22.1831
21.6646
21.1489
20.6359
20.1256
19.618
19.113
18.6106
18.1107
17.6132
17.1183
16.6257
16.1356
15.6477
15.1622
14.6789
14.1978
13.719
13.2423
12.7677
12.2952
11.8247
11.3563
10.8898
10.4254
9.96279
9.50213
9.04332
8.58636
8.1312
7.67782
7.22619
6.77628
6.32808
5.88154
5.43665
4.99338
4.55169
4.11157
3.67298
3.2359
2.80029
2.36612
1.93334
1.50206
1.07179
0.644921
0.211427
61.773
59.5999
57.5542
56.0856
54.6701
53.1368
51.6316
50.2697
49.0644
47.994
47.0392
46.183
45.4063
44.6895
44.0157
43.3716
42.7472
42.1352
41.5303
40.9292
40.3299
39.7313
39.1328
38.5342
37.9359
37.338
36.7411
36.1455
35.5515
34.9597
34.3702
33.7833
33.1993
32.6182
32.0402
31.4655
30.8939
30.3256
29.7606
29.1988
28.6403
28.0851
27.5331
26.9843
26.4387
25.8962
25.3569
24.8206
24.2874
23.7573
23.23
22.7057
22.1843
21.6657
21.1499
20.6369
20.1265
19.6189
19.1138
18.6113
18.1113
17.6139
17.1189
16.6263
16.1361
15.6482
15.1626
14.6793
14.1982
13.7193
13.2426
12.7679
12.2954
11.8249
11.3565
10.89
10.4255
9.96292
9.50223
9.04341
8.58643
8.13125
7.67786
7.22622
6.77631
6.32809
5.88155
5.43666
4.99338
4.5517
4.11158
3.673
3.23592
2.80032
2.36614
1.93336
1.50197
1.07168
0.644182
0.211662
61.5178
59.3907
57.4062
56.0038
54.6423
53.1448
51.6642
50.3215
49.1318
48.0742
47.1304
46.2835
45.5135
44.8005
44.1275
43.4816
42.8534
42.236
41.6248
41.0169
40.4106
39.8051
39.1998
38.595
37.9908
37.3875
36.7857
36.1856
35.5877
34.9923
34.3996
33.8099
33.2233
32.6399
32.0599
31.4833
30.9101
30.3403
29.7739
29.211
28.6514
28.0951
27.5422
26.9926
26.4463
25.9032
25.3633
24.8265
24.2928
23.7621
23.2345
22.7098
22.1881
21.6692
21.1531
20.6398
20.1292
19.6213
19.116
18.6133
18.1132
17.6156
17.1204
16.6277
16.1374
15.6494
15.1637
14.6803
14.1992
13.7202
13.2434
12.7687
12.2961
11.8256
11.3571
10.8906
10.426
9.96339
9.50267
9.04382
8.58681
8.13162
7.6782
7.22655
6.77662
6.3284
5.88185
5.43696
4.99369
4.55202
4.11192
3.67336
3.23632
2.80076
2.36666
1.93394
1.50276
1.07245
0.645816
0.211226
61.4935
59.1978
57.1376
55.7772
54.4808
53.0272
51.5769
50.2609
49.0943
48.0549
47.1249
46.2889
45.5274
44.8205
44.1512
43.507
42.8787
42.2601
41.647
41.0367
40.4279
39.8197
39.212
38.6048
37.9984
37.3933
36.7899
36.1884
35.5894
34.993
34.3994
33.809
33.2218
32.6379
32.0574
31.4803
30.9067
30.3366
29.7699
29.2066
28.6468
28.0904
27.5373
26.9875
26.441
25.8978
25.3577
24.8209
24.2871
23.7564
23.2287
22.7039
22.1821
21.6632
21.1471
20.6337
20.1231
19.6152
19.1099
18.6073
18.1071
17.6095
17.1144
16.6217
16.1314
15.6434
15.1578
14.6744
14.1933
13.7143
13.2376
12.7629
12.2904
11.8199
11.3514
10.885
10.4205
9.9579
9.49723
9.03844
8.58148
8.12634
7.67299
7.2214
6.77153
6.32338
5.8769
5.43208
4.9889
4.54731
4.10732
3.66888
3.23198
2.79658
2.36273
1.93024
1.49971
1.06955
0.645944
0.208031
62.6776
59.9324
57.5264
56.0212
54.6595
53.1553
51.6689
50.3382
49.1733
48.1434
47.2253
46.4002
45.6469
44.9445
44.2758
43.6286
42.9945
42.3681
41.7458
41.1258
40.5071
39.8893
39.2724
38.6566
38.0423
37.4301
36.8204
36.2134
35.6095
35.0089
34.4118
33.8182
33.2283
32.6421
32.0597
31.481
30.906
30.3347
29.7671
29.2031
28.6427
28.0858
27.5324
26.9824
26.4357
25.8923
25.3523
24.8154
24.2816
23.7509
23.2233
22.6986
22.1769
21.6581
21.1421
20.6289
20.1184
19.6106
19.1055
18.6029
18.1029
17.6055
17.1105
16.6179
16.1277
15.6399
15.1543
14.6711
14.1901
13.7113
13.2346
12.7601
12.2876
11.8173
11.3489
10.8825
10.4181
9.95567
9.4951
9.0364
8.57953
8.12448
7.67122
7.21971
6.76993
6.32186
5.87547
5.43074
4.98764
4.54616
4.10626
3.66794
3.23117
2.79594
2.36228
1.93004
1.49968
1.06985
0.644833
0.209681
67.8628
63.1354
59.2912
57.0421
55.1652
53.2635
51.5218
50.0387
48.7663
47.6477
46.6571
45.7782
44.9912
44.2753
43.6122
42.9864
42.3856
41.8
41.2228
40.6495
40.0768
39.5032
38.9278
38.3504
37.7711
37.1903
36.6085
36.0264
35.4444
34.863
34.2827
33.704
33.1271
32.5523
31.9798
31.4099
30.8426
30.2781
29.7165
29.1578
28.6021
28.0494
27.4996
26.9529
26.4092
25.8685
25.3307
24.7959
24.2641
23.7351
23.209
22.6858
22.1653
21.6477
21.1327
20.6205
20.1109
19.6039
19.0995
18.5976
18.0982
17.6013
17.1069
16.6148
16.125
15.6376
15.1525
14.6696
14.1889
13.7103
13.2339
12.7597
12.2874
11.8173
11.3491
10.8829
10.4187
9.95632
9.49587
9.03727
8.5805
8.12553
7.67233
7.22087
6.77112
6.32307
5.87668
5.43192
4.98878
4.54722
4.10722
3.66876
3.23181
2.79634
2.36238
1.9298
1.49893
1.06882
0.642399
0.211105
64.6039
61.7938
58.924
56.9353
55.1777
53.3558
51.6409
50.1553
48.8743
47.7469
46.747
45.8585
45.0622
44.3373
43.6654
43.0314
42.4232
41.8312
41.2486
40.6707
40.0943
39.5177
38.9398
38.3605
37.7797
37.1977
36.6151
36.0322
35.4497
34.8679
34.2873
33.7083
33.1312
32.5562
31.9836
31.4135
30.8462
30.2816
29.7199
29.1611
28.6052
28.0524
27.5026
26.9557
26.4119
25.8711
25.3333
24.7984
24.2665
23.7374
23.2113
22.688
22.1674
21.6497
21.1347
20.6224
20.1127
19.6057
19.1012
18.5993
18.0999
17.6029
17.1084
16.6162
16.1265
15.639
15.1538
14.6709
14.1901
13.7116
13.2351
12.7608
12.2886
11.8184
11.3502
10.8839
10.4197
9.95731
9.49683
9.03821
8.58142
8.12642
7.6732
7.22172
6.77196
6.32388
5.87747
5.4327
4.98954
4.54796
4.10795
3.66947
3.2325
2.79702
2.36304
1.93043
1.49964
1.06943
0.644394
0.209564
63.0444
61.4988
59.0959
57.0058
55.2051
53.4536
51.8028
50.3459
49.0761
47.9506
46.9433
46.0397
45.2239
44.4779
43.7851
43.1314
42.5057
41.8987
41.3037
40.7156
40.131
39.5478
38.9647
38.3812
37.797
37.2123
36.6275
36.0428
35.4587
34.8755
34.2938
33.7139
33.1359
32.5602
31.987
31.4164
30.8486
30.2837
29.7217
29.1626
28.6066
28.0536
27.5036
26.9566
26.4127
25.8718
25.3339
24.799
24.267
23.7379
23.2117
22.6884
22.1678
21.6501
21.135
20.6227
20.1131
19.606
19.1016
18.5996
18.1002
17.6033
17.1087
16.6166
16.1268
15.6394
15.1542
14.6712
14.1905
13.7119
13.2355
12.7612
12.2889
11.8187
11.3505
10.8843
10.42
9.95765
9.49717
9.03855
8.58175
8.12675
7.67352
7.22204
6.77227
6.3242
5.87778
5.433
4.98984
4.54826
4.10823
3.66975
3.23277
2.79727
2.36327
1.93064
1.49993
1.06972
0.646436
0.206665
62.0436
60.86
58.7426
56.7449
55.0397
53.4126
51.8477
50.4281
49.1741
48.0581
47.0558
46.1524
45.3337
44.5829
43.8843
43.2241
42.5915
41.9775
41.3757
40.781
40.1903
39.6015
39.0133
38.4252
37.8369
37.2486
36.6604
36.0728
35.4861
34.9007
34.3169
33.735
33.1553
32.5781
32.0035
31.4317
30.8628
30.2968
29.7339
29.174
28.6172
28.0635
27.5129
26.9653
26.4209
25.8794
25.3411
24.8057
24.2733
23.7438
23.2172
22.6935
22.1727
21.6546
21.1394
20.6268
20.1169
19.6096
19.1049
18.6028
18.1032
17.6061
17.1114
16.6192
16.1292
15.6416
15.1563
14.6733
14.1924
13.7138
13.2372
12.7628
12.2905
11.8202
11.3519
10.8856
10.4213
9.95888
9.49835
9.03967
8.58282
8.12778
7.67451
7.22299
6.77318
6.32507
5.87863
5.43382
4.99062
4.54901
4.10896
3.67044
3.23342
2.79788
2.36381
1.93111
1.50029
1.07011
0.646795
0.206116
61.2383
60.1813
58.3467
56.5555
54.9593
53.4085
51.8987
50.5103
49.2732
48.1685
47.1728
46.2709
45.4495
44.6936
43.9883
43.3206
42.6799
42.0577
41.4476
40.8452
40.2474
39.6521
39.0582
38.4651
37.8725
37.2805
36.6891
36.0987
35.5095
34.9219
34.3361
33.7526
33.1714
32.5928
32.0171
31.4442
30.8744
30.3076
29.7439
29.1834
28.626
28.0718
27.5207
26.9727
26.4278
25.886
25.3473
24.8115
24.2788
23.7491
23.2223
22.6984
22.1773
21.659
21.1436
20.6308
20.1207
19.6133
19.1085
18.6062
18.1065
17.6093
17.1144
16.622
16.132
15.6443
15.1589
14.6757
14.1948
13.716
13.2394
12.7649
12.2925
11.8221
11.3538
10.8874
10.423
9.96051
9.49991
9.04118
8.58427
8.12917
7.67585
7.22428
6.77442
6.32626
5.87977
5.43492
4.99168
4.55003
4.10994
3.67137
3.2343
2.79869
2.3645
1.93169
1.50046
1.07025
0.644651
0.208459
60.6192
59.6484
58.0042
56.3679
54.8512
53.3558
51.8997
50.5539
49.3447
48.2576
47.2729
46.3767
45.5566
44.7991
44.0903
43.4178
42.7713
42.1429
41.5265
40.9178
40.3139
39.713
39.114
38.5163
37.9195
37.3237
36.7289
36.1355
35.5435
34.9534
34.3654
33.7798
33.1968
32.6165
32.0393
31.465
30.894
30.3261
29.7614
29.1999
28.6416
28.0866
27.5347
26.986
26.4405
25.898
25.3587
24.8224
24.2892
23.759
23.2317
22.7074
22.1859
21.6673
21.1515
20.6384
20.128
19.6203
19.1152
18.6127
18.1128
17.6153
17.1203
16.6276
16.1374
15.6495
15.1639
14.6806
14.1995
13.7206
13.2438
12.7692
12.2966
11.8261
11.3577
10.8912
10.4267
9.96406
9.50336
9.04453
8.58753
8.13235
7.67894
7.22729
6.77736
6.32914
5.88258
5.43766
4.99437
4.55266
4.1125
3.67388
3.23674
2.80104
2.36672
1.93377
1.50204
1.07173
0.643263
0.212488
60.1815
59.2597
57.7053
56.1574
54.7068
53.2667
51.8611
50.5554
49.3733
48.3046
47.3333
46.4466
45.6322
44.8767
44.1671
43.4915
42.8406
42.2067
41.5843
40.9696
40.3599
39.7537
39.1497
38.5475
37.9468
37.3474
36.7496
36.1534
35.5591
34.967
34.3772
33.7901
33.2058
32.6245
32.0463
31.4713
30.8996
30.3311
29.7659
29.204
28.6454
28.09
27.5378
26.9889
26.4431
25.9004
25.3609
24.8245
24.2911
23.7607
23.2333
22.7089
22.1873
21.6686
21.1527
20.6395
20.1291
19.6213
19.1161
18.6136
18.1135
17.616
17.1209
16.6282
16.1379
15.65
15.1644
14.681
14.1998
13.7209
13.2441
12.7694
12.2968
11.8263
11.3578
10.8913
10.4268
9.96414
9.50341
9.04456
8.58755
8.13234
7.67892
7.22726
6.77732
6.32908
5.88251
5.4376
4.9943
4.55259
4.11243
3.67381
3.23667
2.80097
2.36663
1.93363
1.50169
1.07133
0.641583
0.213671
59.9211
59.0433
57.5522
56.0748
54.6823
53.2822
51.9054
50.6216
49.4552
48.3975
47.4349
46.5551
45.7452
44.9913
44.2802
43.6011
42.9447
42.3044
41.6751
41.0533
40.4367
39.8237
39.2134
38.6052
37.9989
37.3945
36.792
36.1915
35.5934
34.9978
34.405
33.8151
33.2284
32.6449
32.0648
31.488
30.9147
30.3449
29.7784
29.2154
28.6557
28.0994
27.5464
26.9967
26.4502
25.9069
25.3669
24.8299
24.2961
23.7653
23.2376
22.7128
22.1909
21.6719
21.1557
20.6423
20.1317
19.6237
19.1183
18.6156
18.1154
17.6177
17.1225
16.6297
16.1393
15.6513
15.1655
14.6821
14.2008
13.7218
13.245
12.7702
12.2976
11.827
11.3585
10.8919
10.4273
9.96466
9.5039
9.04502
8.58798
8.13275
7.6793
7.22762
6.77766
6.32941
5.88284
5.43792
4.99462
4.55292
4.11279
3.67419
3.23709
2.80144
2.36719
1.9343
1.50267
1.07233
0.644194
0.211855
59.8949
58.846
57.2757
55.8391
54.5115
53.1552
51.8107
50.5581
49.4196
48.3829
47.4347
46.5651
45.7627
45.014
44.3059
43.6275
42.9705
42.3286
41.6972
41.0731
40.4541
39.8388
39.2262
38.616
38.0078
37.4017
36.7976
36.1959
35.5966
35
34.4063
33.8157
33.2284
32.6443
32.0637
31.4865
30.9127
30.3424
29.7755
29.2121
28.6521
28.0954
27.5421
26.9921
26.4454
25.9019
25.3616
24.8245
24.2905
23.7595
23.2316
22.7067
22.1847
21.6656
21.1493
20.6359
20.1251
19.6171
19.1117
18.6089
18.1086
17.6109
17.1157
16.6229
16.1325
15.6445
15.1587
14.6753
14.1941
13.7151
13.2383
12.7636
12.291
11.8205
11.352
10.8855
10.4209
9.95835
9.49765
9.03883
8.58185
8.12669
7.67332
7.22171
6.77183
6.32366
5.87717
5.43234
4.98914
4.54755
4.10754
3.66909
3.23217
2.79675
2.36284
1.93032
1.49981
1.06979
0.647917
0.204443
61.0711
59.5617
57.6327
56.0537
54.6702
53.2675
51.8865
50.6184
49.4806
48.4512
47.5115
46.65
45.8542
45.11
44.4038
43.7247
43.0646
42.4176
41.7798
41.1483
40.5215
39.8983
39.278
38.6603
38.0451
37.4325
36.8227
36.2158
35.612
35.0115
34.4144
33.8209
33.231
32.6449
32.0624
31.4836
30.9086
30.3372
29.7694
29.2052
28.6446
28.0874
27.5338
26.9835
26.4366
25.893
25.3527
24.8156
24.2817
23.7508
23.2231
22.6983
22.1764
21.6575
21.1414
20.6281
20.1176
19.6097
19.1045
18.6019
18.1019
17.6044
17.1093
16.6167
16.1265
15.6387
15.1532
14.6699
14.1889
13.7101
13.2334
12.7589
12.2865
11.8161
11.3478
10.8814
10.4171
9.9546
9.49405
9.03536
8.57852
8.12348
7.67024
7.21875
6.76899
6.32094
5.87458
5.42986
4.98679
4.54533
4.10546
3.66716
3.23042
2.79523
2.36162
1.92947
1.49938
1.06971
0.646735
0.20584
66.8592
62.5194
58.9638
56.8138
55.0277
53.2208
51.534
50.0728
48.8126
47.705
46.7234
45.8503
45.0663
44.3509
43.6861
43.057
42.452
41.8619
41.28
40.7019
40.1247
39.5467
38.9672
38.3859
37.803
37.219
36.6343
36.0495
35.4652
34.8818
34.2997
33.7193
33.1409
32.5648
31.9912
31.4203
30.8521
30.2868
29.7245
29.1651
28.6088
28.0555
27.5053
26.9581
26.414
25.8729
25.3348
24.7997
24.2676
23.7383
23.212
22.6885
22.1679
21.65
21.1349
20.6225
20.1127
19.6056
19.101
18.599
18.0995
17.6025
17.108
16.6158
16.126
15.6384
15.1532
14.6702
14.1895
13.7109
13.2345
12.7601
12.2879
11.8176
11.3494
10.8832
10.4189
9.95654
9.49606
9.03744
8.58064
8.12564
7.67242
7.22094
6.77118
6.32311
5.87671
5.43194
4.98878
4.54721
4.10721
3.66873
3.23177
2.79629
2.3623
1.9297
1.49882
1.06867
0.642464
0.210616
63.6118
61.1631
58.5688
56.6733
55.0126
53.3032
51.6584
50.2007
48.9325
47.815
46.823
45.9396
45.1459
44.4215
43.7482
43.1113
42.499
41.9024
41.3148
40.7316
40.1501
39.5684
38.9858
38.4019
37.817
37.2313
36.6452
36.0593
35.474
34.8898
34.307
33.7261
33.1473
32.5708
31.9969
31.4257
30.8573
30.2918
29.7293
29.1698
28.6133
28.0598
27.5095
26.9621
26.4179
25.8766
25.3384
24.8032
24.2709
23.7416
23.2152
22.6916
22.1708
21.6529
21.1377
20.6251
20.1153
19.6081
19.1035
18.6014
18.1019
17.6048
17.1101
16.6179
16.128
15.6405
15.1552
14.6721
14.1913
13.7127
13.2362
12.7618
12.2895
11.8193
11.351
10.8847
10.4204
9.95801
9.49749
9.03883
8.58201
8.12698
7.67373
7.22222
6.77243
6.32433
5.8779
5.43311
4.98993
4.54834
4.1083
3.6698
3.23282
2.79731
2.3633
1.93066
1.49984
1.06961
0.644914
0.208985
62.0437
60.86
58.7426
56.7449
55.0397
53.4126
51.8476
50.4281
49.174
48.0581
47.0558
46.1525
45.3337
44.5829
43.8842
43.2241
42.5915
41.9776
41.3757
40.781
40.1903
39.6015
39.0133
38.4252
37.8369
37.2486
36.6604
36.0728
35.4861
34.9007
34.3169
33.735
33.1553
32.5781
32.0035
31.4317
30.8628
30.2968
29.7339
29.174
28.6172
28.0635
27.5129
26.9653
26.4209
25.8795
25.3411
24.8057
24.2733
23.7438
23.2172
22.6935
22.1727
21.6546
21.1394
20.6268
20.1169
19.6096
19.1049
18.6028
18.1032
17.6061
17.1114
16.6192
16.1292
15.6416
15.1563
14.6733
14.1924
13.7138
13.2372
12.7628
12.2905
11.8202
11.3519
10.8856
10.4213
9.95888
9.49835
9.03967
8.58282
8.12778
7.67451
7.22299
6.77318
6.32507
5.87863
5.43382
4.99062
4.54901
4.10896
3.67044
3.23342
2.79788
2.36381
1.93111
1.50028
1.07011
0.646795
0.206116
61.0413
60.2306
58.4038
56.4924
54.8765
53.3784
51.9092
50.5337
49.2976
48.1907
47.1906
46.2829
45.4558
44.6956
43.9877
43.3188
42.678
42.0564
41.4475
40.8463
40.2496
39.6555
39.0626
38.4703
37.8784
37.2869
36.6959
36.1058
35.5167
34.9291
34.3433
33.7595
33.1781
32.5993
32.0232
31.45
30.8799
30.3128
29.7489
29.1881
28.6305
28.076
27.5247
26.9765
26.4314
25.8894
25.3505
24.8146
24.2817
23.7517
23.2247
22.7007
22.1794
21.661
21.1454
20.6325
20.1224
19.6148
19.1099
18.6076
18.1078
17.6104
17.1156
16.6231
16.133
15.6452
15.1598
14.6766
14.1956
13.7168
13.2401
12.7656
12.2932
11.8228
11.3544
10.888
10.4236
9.96109
9.50047
9.04172
8.58481
8.1297
7.67636
7.22478
6.77492
6.32675
5.88025
5.43539
4.99215
4.55049
4.11038
3.6718
3.23471
2.79907
2.36486
1.93201
1.50078
1.07057
0.645469
0.207569
60.2341
59.5529
58.0105
56.3066
54.8006
53.3831
51.9757
50.6365
49.4197
48.3244
47.3294
46.4199
45.5858
44.8161
44.098
43.4188
42.7678
42.1362
41.5177
40.9077
40.303
39.7018
39.1028
38.5055
37.9095
37.3145
36.7208
36.1283
35.5372
34.9479
34.3606
33.7754
33.1928
32.6128
32.0358
31.4617
30.8908
30.3231
29.7586
29.1973
28.6393
28.0844
27.5327
26.9842
26.4388
25.8965
25.3572
24.821
24.2879
23.7577
23.2305
22.7061
22.1847
21.6661
21.1503
20.6373
20.1269
19.6193
19.1142
18.6117
18.1118
17.6144
17.1194
16.6268
16.1366
15.6487
15.1631
14.6798
14.1987
13.7198
13.243
12.7684
12.2959
11.8254
11.357
10.8905
10.426
9.96339
9.5027
9.04388
8.58689
8.13172
7.67832
7.22668
6.77676
6.32853
5.88198
5.43707
4.99377
4.55205
4.11189
3.67324
3.23606
2.8003
2.36587
1.93277
1.50071
1.07029
0.64001
0.213637
59.6114
59.0186
57.6701
56.1247
54.6992
53.3386
51.989
50.6969
49.5104
48.4329
47.4473
46.5404
45.7037
44.9284
44.2035
43.517
42.8585
42.2195
41.5938
40.9768
40.3658
39.7588
39.1548
38.553
37.9531
37.3549
36.7582
36.1631
35.5697
34.9782
34.3888
33.8018
33.2174
32.6359
32.0574
31.482
30.9099
30.3411
29.7756
29.2134
28.6545
28.0989
27.5465
26.9973
26.4512
25.9083
25.3685
24.8318
24.2981
23.7675
23.2398
22.7151
22.1933
21.6743
21.1582
20.6449
20.1343
19.6263
19.121
18.6183
18.1182
17.6205
17.1253
16.6325
16.1421
15.6541
15.1683
14.6849
14.2036
13.7246
13.2477
12.773
12.3003
11.8297
11.3611
10.8945
10.4299
9.96724
9.50645
9.04754
8.59047
8.13521
7.68174
7.23002
6.78003
6.33173
5.88511
5.44014
4.99678
4.555
4.11477
3.67605
3.23878
2.8029
2.36825
1.93488
1.50192
1.07122
0.635795
0.220919
59.1701
58.6284
57.3722
55.9164
54.5573
53.2534
51.9576
50.7087
49.5507
48.4912
47.5178
46.6187
45.7857
45.0104
44.2826
43.5915
42.9271
42.2816
41.649
41.0254
40.4081
39.7955
39.1865
38.5804
37.9768
37.3753
36.7758
36.1783
35.5828
34.9894
34.3985
33.8102
33.2247
32.6423
32.063
31.487
30.9144
30.3451
29.7793
29.2168
28.6576
28.1017
27.5491
26.9997
26.4534
25.9103
25.3704
24.8335