/*--------------------------------*- C++ -*----------------------------------*\
| =========                 |                                                 |
| \\      /  F ield         | OpenFOAM: The Open Source CFD Toolbox           |
|  \\    /   O peration     | Version:  5.x                                   |
|   \\  /    A nd           | Web:      www.OpenFOAM.org                      |
|    \\/     M anipulation  |                                                 |
\*---------------------------------------------------------------------------*/
/*   Windows 32 and 64 bit porting by blueCAPE: http://www.bluecape.com.pt   *\
|  Based on Windows porting (2.0.x v4) by Symscape: http://www.symscape.com   |
\*---------------------------------------------------------------------------*/
FoamFile
{
    version     2.0;
    format      ascii;
    class       volScalarField;
    location    "20";
    object      p;
}
// * * * * * * * * * * * * * * * * * * * * * * * * * * * * * * * * * * * * * //

dimensions      [0 2 -2 0 0 0 0];

internalField   nonuniform List<scalar> 
10000
(
73.1101
65.3699
60.254
57.7769
55.7468
53.6932
51.8829
50.402
49.1604
48.0722
47.0996
46.2265
45.4391
44.7218
44.0584
43.434
42.8361
42.2545
41.6815
41.112
40.5427
39.9715
39.3978
38.8212
38.2421
37.6609
37.0783
36.4948
35.9112
35.328
34.7457
34.1647
33.5854
33.008
32.4329
31.86
31.2896
30.7215
30.156
29.5931
29.0328
28.4751
27.9201
27.3678
26.8182
26.2713
25.7271
25.1856
24.6468
24.1106
23.577
23.046
22.5176
21.9918
21.4686
20.948
20.4301
19.9147
19.4018
18.8915
18.3836
17.878
17.3749
16.8741
16.3756
15.8795
15.3856
14.894
14.4047
13.9176
13.4327
12.95
12.4694
11.9909
11.5146
11.0404
10.5683
10.0982
9.63016
9.16412
8.70006
8.23795
7.77773
7.31938
6.86286
6.40813
5.95517
5.50396
5.05449
4.60676
4.16074
3.71641
3.27373
2.83267
2.39318
1.95517
1.51886
1.0834
0.651145
0.214778
69.9272
64.0221
59.7441
57.5453
55.6855
53.7209
51.9179
50.413
49.1548
48.0633
47.0927
46.2215
45.4346
44.7172
44.0539
43.43
42.8328
42.2518
41.6795
41.1104
40.5413
39.9702
39.3965
38.82
38.2409
37.6598
37.0773
36.494
35.9105
35.3274
34.7452
34.1643
33.5851
33.0079
32.4328
31.86
31.2896
30.7216
30.1562
29.5932
29.0329
28.4753
27.9203
27.368
26.8184
26.2716
25.7274
25.1858
24.647
24.1108
23.5772
23.0462
22.5178
21.992
21.4688
20.9482
20.4302
19.9148
19.4019
18.8916
18.3837
17.8781
17.375
16.8742
16.3757
15.8795
15.3857
14.8941
14.4048
13.9177
13.4327
12.95
12.4694
11.991
11.5146
11.0404
10.5683
10.0982
9.63017
9.16414
8.70007
8.23796
7.77774
7.31939
6.86287
6.40814
5.95518
5.50397
5.0545
4.60677
4.16074
3.71642
3.27374
2.83269
2.3932
1.95519
1.5189
1.0834
0.651728
0.214118
68.3491
63.6142
59.7651
57.5396
55.693
53.7899
52.0083
50.4874
49.2119
48.1161
47.1487
46.2798
45.4913
44.769
44.0996
43.4697
42.8671
42.2816
41.7052
41.1326
40.5603
39.9863
39.4099
38.831
38.2498
37.6668
37.0826
36.4979
35.9133
35.3292
34.7462
34.1647
33.5851
33.0074
32.432
31.859
31.2884
30.7202
30.1546
29.5916
29.0313
28.4736
27.9186
27.3663
26.8168
26.2699
25.7257
25.1842
24.6454
24.1093
23.5757
23.0447
22.5164
21.9906
21.4674
20.9469
20.429
19.9136
19.4008
18.8905
18.3826
17.8771
17.374
16.8732
16.3747
15.8786
15.3848
14.8932
14.404
13.9169
13.432
12.9493
12.4687
11.9903
11.514
11.0398
10.5677
10.0976
9.62958
9.16356
8.69952
8.23742
7.77722
7.31889
6.86238
6.40768
5.95473
5.50353
5.05405
4.60634
4.16032
3.71601
3.27335
2.83231
2.39283
1.95483
1.5186
1.08314
0.652334
0.212867
67.346
63.0075
59.4564
57.3273
55.5597
53.7471
52.0214
50.5193
49.2504
48.1646
47.2103
46.3525
45.5701
44.8488
44.1767
43.5422
42.9345
42.3439
41.7629
41.1859
40.6094
40.0313
39.451
38.8683
38.2835
37.6973
37.1101
36.5227
35.9357
35.3495
34.7646
34.1814
33.6003
33.0213
32.4448
31.8707
31.2991
30.73
30.1636
29.5999
29.0389
28.4806
27.9251
27.3723
26.8223
26.275
25.7304
25.1886
24.6494
24.1129
23.5791
23.0479
22.5193
21.9933
21.4699
20.9492
20.4311
19.9156
19.4026
18.8922
18.3842
17.8786
17.3753
16.8744
16.3759
15.8796
15.3858
14.8941
14.4048
13.9177
13.4327
12.95
12.4694
11.9909
11.5146
11.0404
10.5682
10.0981
9.63009
9.16405
8.69998
8.23787
7.77765
7.31931
6.86279
6.40808
5.95511
5.50389
5.0544
4.60667
4.16065
3.71633
3.27366
2.83262
2.39312
1.95512
1.51894
1.08352
0.653424
0.21229
66.5502
62.3626
59.0675
57.1146
55.4534
53.7185
52.0412
50.5597
49.2991
48.2221
47.2797
46.4337
45.6595
44.9416
44.2685
43.63
43.0167
42.4199
41.8326
41.2494
40.6671
40.0836
39.4982
38.9108
38.3218
37.7316
37.141
36.5504
35.9606
35.3719
34.7849
34.1998
33.617
33.0366
32.4588
31.8835
31.3108
30.7408
30.1736
29.6091
29.0474
28.4884
27.9323
27.379
26.8285
26.2808
25.7358
25.1936
24.6541
24.1172
23.5831
23.0516
22.5227
21.9964
21.4728
20.9519
20.4336
19.9179
19.4047
18.8941
18.3859
17.8801
17.3767
16.8757
16.377
15.8806
15.3866
14.8949
14.4055
13.9183
13.4333
12.9505
12.4698
11.9913
11.5149
11.0406
10.5684
10.0983
9.63021
9.16412
8.70002
8.23787
7.77762
7.31925
6.86271
6.40796
5.95497
5.50373
5.05423
4.60649
4.16045
3.71612
3.27344
2.83238
2.39286
1.95485
1.51864
1.08324
0.653344
0.211556
65.9393
61.8483
58.7341
56.9306
55.3591
53.6819
52.0447
50.5885
49.3446
48.2823
47.3552
46.5232
45.7596
45.0475
44.3757
43.7349
43.1166
42.5134
41.9192
41.3291
40.7402
40.1505
39.5593
38.9667
38.3728
37.7782
37.1835
36.5894
35.9963
35.4048
34.8153
34.228
33.6432
33.061
32.4815
31.9048
31.3308
30.7596
30.1912
29.6257
29.0631
28.5033
27.9464
27.3923
26.8411
26.2927
25.7471
25.2043
24.6643
24.1269
23.5923
23.0604
22.5311
22.0045
21.4805
20.9592
20.4406
19.9246
19.4112
18.9003
18.3918
17.8858
17.3822
16.881
16.3821
15.8856
15.3914
14.8996
14.41
13.9227
13.4376
12.9547
12.474
11.9954
11.519
11.0446
10.5724
10.1022
9.6341
9.16798
8.70383
8.24165
7.78137
7.32297
6.8664
6.41164
5.95863
5.50739
5.05788
4.61014
4.1641
3.71976
3.27706
2.83599
2.39643
1.9584
1.52207
1.08664
0.6563
0.213552
65.5093
61.4809
58.4617
56.7423
55.2278
53.5898
51.9849
50.5571
49.3381
48.2982
47.391
46.5757
45.8244
45.1199
44.4511
43.8098
43.1885
42.5808
41.9811
41.3854
40.7908
40.1958
39.5997
39.0023
38.4042
37.8058
37.2078
36.6107
36.0151
35.4213
34.8298
34.2409
33.6546
33.0711
32.4905
31.9127
31.3379
30.7659
30.1969
29.6307
29.0675
28.5072
27.9498
27.3953
26.8437
26.2949
25.749
25.2058
24.6655
24.1279
23.593
23.0608
22.5313
22.0045
21.4803
20.9589
20.44
19.9238
19.4102
18.8992
18.3906
17.8844
17.3806
16.8793
16.3803
15.8837
15.3895
14.8976
14.408
13.9206
13.4355
12.9525
12.4718
11.9932
11.5168
11.0424
10.5702
10.1001
9.63193
9.16582
8.7017
8.23953
7.77928
7.3209
6.86437
6.40965
5.9567
5.50552
5.05609
4.60842
4.16245
3.71818
3.27555
2.83454
2.39503
1.95709
1.52071
1.08543
0.654788
0.212976
65.2521
61.2761
58.3283
56.682
55.2195
53.6063
52.0129
50.596
49.3913
48.3676
47.4764
46.6749
45.9338
45.2352
44.5683
43.9254
43.2998
42.6861
42.0793
41.4761
40.874
40.2716
39.6685
39.0646
38.4605
37.8566
37.2537
36.6521
36.0525
35.4552
34.8605
34.2686
33.6798
33.0939
32.5111
31.9314
31.3548
30.7813
30.2107
29.6433
29.0788
28.5174
27.959
27.4035
26.851
26.3014
25.7547
25.2108
24.6698
24.1316
23.5962
23.0635
22.5336
22.0064
21.4818
20.96
20.4409
19.9244
19.4104
18.8991
18.3902
17.8838
17.3799
16.8784
16.3793
15.8826
15.3882
14.8962
14.4065
13.9191
13.4339
12.9509
12.4702
11.9916
11.5152
11.0409
10.5687
10.0985
9.63045
9.16439
8.70031
8.23821
7.77802
7.31972
6.86328
6.40867
5.95584
5.50479
5.05551
4.60797
4.16215
3.71803
3.27556
2.83471
2.39538
1.95766
1.5214
1.08645
0.655565
0.213888
65.2196
61.0772
58.0481
56.4485
55.0708
53.5165
51.9515
50.5491
49.3563
48.3456
47.4682
46.6799
45.95
45.2595
44.5973
43.9562
43.3302
42.7144
42.1045
41.4978
40.892
40.2861
39.6798
39.0732
38.4668
37.861
37.2565
36.6537
36.0531
35.455
34.8597
34.2674
33.6781
33.0919
32.5087
31.9287
31.3518
30.7779
30.2071
29.6394
29.0746
28.5129
27.9542
27.3984
26.8455
26.2956
25.7486
25.2044
24.6631
24.1246
23.5889
23.056
22.5258
21.9983
21.4736
20.9515
20.4322
19.9155
19.4013
18.8898
18.3808
17.8742
17.3702
16.8686
16.3694
15.8726
15.3782
14.8861
14.3964
13.9089
13.4237
12.9408
12.4601
11.9815
11.5052
11.0309
10.5588
10.0887
9.62074
9.15476
8.69077
8.22875
7.76866
7.31047
6.85414
6.39965
5.94697
5.49607
5.04695
4.59957
4.15391
3.70995
3.26765
2.827
2.38791
1.95049
1.5146
1.08028
0.650257
0.211105
66.4056
61.8314
58.4689
56.7026
55.2488
53.6561
52.0688
50.6547
49.458
48.4494
47.5777
46.7965
46.0728
45.3865
44.7256
44.0827
43.4521
42.8293
42.2111
41.5953
40.9804
40.3656
39.7507
39.1361
38.5224
37.91
37.2996
36.6917
36.0865
35.4844
34.8856
34.29
33.6978
33.109
32.5236
31.9415
31.3626
30.7871
30.2147
29.6455
29.0795
28.5166
27.9568
27.4001
26.8463
26.2956
25.7478
25.203
24.661
24.122
23.5858
23.0524
22.5218
21.9941
21.469
20.9467
20.4271
19.9102
19.3959
18.8842
18.3751
17.8685
17.3644
16.8628
16.3636
15.8669
15.3725
14.8805
14.3909
13.9036
13.4185
12.9357
12.4552
11.9768
11.5007
11.0266
10.5547
10.0849
9.61711
9.15136
8.68761
8.22582
7.76598
7.30803
6.85196
6.39773
5.94533
5.4947
5.04586
4.59875
4.15337
3.70968
3.26767
2.82731
2.38856
1.95138
1.51586
1.0815
0.649884
0.213882
69.9276
64.0224
59.7441
57.5447
55.6848
53.7206
51.918
50.4133
49.155
48.0634
47.0927
46.2215
45.4346
44.7172
44.0539
43.4301
42.8329
42.2519
41.6795
41.1104
40.5413
39.9703
39.3965
38.82
38.2409
37.6598
37.0773
36.494
35.9105
35.3274
34.7451
34.1643
33.5851
33.0079
32.4328
31.86
31.2896
30.7216
30.1562
29.5932
29.0329
28.4753
27.9203
27.368
26.8184
26.2716
25.7274
25.1858
24.647
24.1108
23.5772
23.0462
22.5178
21.9919
21.4687
20.9481
20.4302
19.9148
19.4019
18.8916
18.3837
17.8781
17.375
16.8742
16.3757
15.8795
15.3857
14.8941
14.4048
13.9177
13.4327
12.95
12.4694
11.991
11.5146
11.0404
10.5683
10.0982
9.63017
9.16414
8.70008
8.23796
7.77775
7.3194
6.86287
6.40815
5.95518
5.50397
5.0545
4.60677
4.16074
3.71642
3.27374
2.83269
2.3932
1.95519
1.5189
1.0834
0.651731
0.214119
66.6297
62.5679
59.2542
57.3904
55.6879
53.8068
52.0133
50.4815
49.1987
48.0975
47.1267
46.2568
45.4691
44.7482
44.08
43.451
42.8492
42.2644
41.6891
41.1177
40.547
39.9748
39.4002
38.823
38.2435
37.6621
37.0795
36.496
35.9125
35.3294
34.7473
34.1664
33.5873
33.0102
32.4351
31.8624
31.292
30.724
30.1585
29.5956
29.0353
28.4775
27.9225
27.3701
26.8205
26.2736
25.7293
25.1877
24.6488
24.1125
23.5789
23.0478
22.5193
21.9935
21.4702
20.9495
20.4315
19.916
19.4032
18.8928
18.3848
17.8793
17.3761
16.8752
16.3767
15.8805
15.3866
14.895
14.4057
13.9185
13.4336
12.9509
12.4702
11.9918
11.5154
11.0412
10.569
10.099
9.63089
9.16484
8.70076
8.23863
7.7784
7.32004
6.86351
6.40879
5.95582
5.5046
5.05511
4.60736
4.16132
3.71697
3.27428
2.83323
2.39374
1.95575
1.51936
1.08422
0.653098
0.213034
65.0861
62.2323
59.394
57.4623
55.7245
53.8952
52.1402
50.6093
49.314
48.2038
47.2289
46.3556
45.5624
44.8334
44.1557
43.5169
42.9058
42.3128
41.7303
41.1528
40.5768
40
39.4213
38.8406
38.2581
37.674
37.089
36.5036
35.9185
35.334
34.7507
34.1689
33.5891
33.0113
32.4358
31.8627
31.2921
30.7239
30.1582
29.5952
29.0347
28.4769
27.9219
27.3695
26.8198
26.2729
25.7286
25.1871
24.6482
24.1119
23.5783
23.0473
22.5188
21.993
21.4697
20.9491
20.4311
19.9156
19.4028
18.8924
18.3845
17.879
17.3759
16.875
16.3765
15.8803
15.3864
14.8949
14.4055
13.9184
13.4335
12.9507
12.4702
11.9917
11.5154
11.0412
10.569
10.0989
9.63087
9.16482
8.70074
8.23862
7.7784
7.32007
6.86356
6.40886
5.95591
5.50469
5.05519
4.60742
4.16136
3.71701
3.27432
2.83327
2.39377
1.9558
1.51941
1.08466
0.654489
0.210886
64.0982
61.6472
59.0732
57.207
55.5419
53.8222
52.1491
50.6545
49.3714
48.2687
47.3025
46.4372
45.6489
44.9213
44.2419
43.5992
42.9833
42.3851
41.7975
41.2151
40.6342
40.0527
39.4696
38.8847
38.298
37.7102
37.1217
36.5332
35.9451
35.3581
34.7725
34.1887
33.6071
33.0278
32.4509
31.8766
31.3048
30.7356
30.1691
29.6052
29.044
28.4856
27.9299
27.3769
26.8268
26.2794
25.7347
25.1927
24.6535
24.1169
23.5829
23.0516
22.5229
21.9968
21.4734
20.9525
20.4343
19.9187
19.4057
18.8952
18.3871
17.8815
17.3782
16.8773
16.3786
15.8823
15.3883
14.8967
14.4072
13.9201
13.4351
12.9523
12.4717
11.9932
11.5168
11.0425
10.5704
10.1002
9.63216
9.16607
8.70197
8.23983
7.77959
7.32124
6.86472
6.41
5.95702
5.50577
5.05624
4.60844
4.16235
3.71797
3.27526
2.83419
2.39466
1.95671
1.52035
1.08594
0.656674
0.20986
63.3012
60.9791
58.6575
56.9746
55.4245
53.7968
52.1874
50.7223
49.4477
48.348
47.3856
46.5249
45.7397
45.0126
44.3309
43.6839
43.0625
42.4582
41.8645
41.2763
40.6899
40.1032
39.5153
38.9259
38.3352
37.7436
37.1516
36.56
35.9692
35.3796
34.7919
34.2062
33.6229
33.0421
32.4639
31.8884
31.3155
30.7454
30.178
29.6134
29.0515
28.4924
27.9362
27.3828
26.8322
26.2843
25.7392
25.1969
24.6573
24.1204
23.5862
23.0546
22.5257
21.9994
21.4757
20.9546
20.4362
19.9204
19.4073
18.8966
18.3884
17.8826
17.3792
16.8781
16.3794
15.883
15.3889
14.8972
14.4077
13.9204
13.4354
12.9525
12.4719
11.9933
11.5169
11.0426
10.5704
10.1003
9.63215
9.16604
8.70192
8.23975
7.77949
7.32112
6.86458
6.40984
5.95684
5.50557
5.05602
4.60822
4.16212
3.71773
3.27501
2.83394
2.39438
1.95644
1.51998
1.08583
0.656697
0.208711
62.6888
60.4527
58.3135
56.7885
55.3328
53.7675
52.204
50.7677
49.5092
48.4208
47.469
46.6181
45.8405
45.1177
44.4367
43.7874
43.1613
42.5512
41.951
41.3561
40.7633
40.1705
39.577
38.9824
38.387
37.791
37.1952
36.6
36.006
35.4137
34.8234
34.2355
33.6502
33.0676
32.4877
31.9107
31.3365
30.7651
30.1965
29.6308
29.068
28.508
27.9509
27.3967
26.8453
26.2967
25.751
25.208
24.6678
24.1304
23.5957
23.0636
22.5343
22.0076
21.4835
20.9621
20.4434
19.9273
19.4138
18.9029
18.3944
17.8884
17.3848
16.8835
16.3846
15.888
15.3938
14.9019
14.4123
13.925
13.4399
12.9569
12.4762
11.9976
11.5212
11.0468
10.5746
10.1044
9.63624
9.1701
8.70594
8.24374
7.78346
7.32506
6.8685
6.41374
5.96072
5.50945
5.05991
4.61211
4.16602
3.72163
3.2789
2.83781
2.3982
1.96026
1.52356
1.08962
0.659802
0.210887
62.2595
60.0801
58.031
56.5881
55.1872
53.6603
52.1305
50.7251
49.4939
48.4295
47.499
46.6662
45.9024
45.1884
44.5114
43.8622
43.2334
42.6185
42.0125
41.4114
40.8124
40.2138
39.6148
39.0153
38.4154
37.8156
37.2164
36.6184
36.022
35.4276
34.8356
34.2463
33.6597
33.076
32.4952
31.9173
31.3424
30.7703
30.2011
29.6349
29.0715
28.5111
27.9535
27.3988
26.8471
26.2981
25.752
25.2087
24.6682
24.1305
23.5955
23.0632
22.5336
22.0067
21.4825
20.9609
20.442
19.9258
19.4121
18.901
18.3924
17.8862
17.3825
16.8811
16.3821
15.8855
15.3912
14.8993
14.4096
13.9222
13.4371
12.9542
12.4734
11.9948
11.5184
11.0441
10.5718
10.1016
9.63351
9.16739
8.70325
8.24108
7.78082
7.32245
6.86592
6.41121
5.95825
5.50706
5.05761
4.6099
4.16389
3.71959
3.27692
2.83591
2.39634
1.9585
1.52161
1.08806
0.657536
0.210146
62.004
59.8782
57.91
56.5466
55.1984
53.6929
52.1705
50.7723
49.5522
48.5019
47.5865
46.7675
46.0146
45.3075
44.6333
43.983
43.35
42.7289
42.1153
41.5059
40.8985
40.2917
39.685
39.0783
38.472
37.8665
37.2622
36.6597
36.0594
35.4615
34.8665
34.2744
33.6855
33.0995
32.5167
31.937
31.3603
30.7867
30.2161
29.6485
29.0839
28.5223
27.9637
27.408
26.8553
26.3055
25.7585
25.2145
24.6733
24.135
23.5994
23.0666
22.5365
22.0092
21.4846
20.9627
20.4434
19.9268
19.4129
18.9015
18.3926
17.8862
17.3822
16.8807
16.3816
15.8848
15.3904
14.8984
14.4087
13.9212
13.436
12.9531
12.4723
11.9937
11.5173
11.043
10.5708
10.1006
9.63252
9.16645
8.70236
8.24024
7.78004
7.32174
6.86529
6.41067
5.95783
5.50677
5.05745
4.6099
4.16404
3.71989
3.27737
2.83652
2.39709
1.95949
1.5226
1.08958
0.658493
0.211401
61.9609
59.6254
57.5786
56.2938
55.05
53.6061
52.1101
50.7246
49.5144
48.4747
47.571
46.764
46.0222
45.3238
44.6556
44.0084
43.3761
42.7538
42.1378
41.5252
40.9145
40.3044
39.6947
39.0853
38.4767
37.8693
37.2636
36.6599
36.0587
35.4602
34.8647
34.2722
33.6829
33.0966
32.5135
31.9334
31.3564
30.7825
30.2115
29.6436
29.0787
28.5168
27.9578
27.4018
26.8488
26.2986
25.7514
25.207
24.6655
24.1269
23.5911
23.058
22.5277
22.0002
21.4754
20.9533
20.4339
19.9171
19.403
18.8914
18.3824
17.8758
17.3718
16.8702
16.371
15.8742
15.3798
14.8877
14.398
13.9105
13.4253
12.9424
12.4617
11.9831
11.5068
11.0325
10.5604
10.0904
9.62234
9.15636
8.69237
8.23034
7.77024
7.31205
6.85572
6.40122
5.94853
5.49762
5.04848
4.60108
4.1554
3.71143
3.2691
2.82845
2.38928
1.952
1.51546
1.08314
0.652545
0.208341
63.173
60.4464
57.9986
56.4884
55.1688
53.7088
52.2089
50.821
49.6106
48.5739
47.6758
46.8757
46.1401
45.4458
44.7786
44.1294
43.4922
42.8628
42.2383
41.6166
40.9965
40.3772
39.7586
39.141
38.5249
37.9107
37.299
36.6901
36.0843
35.4817
34.8827
34.287
33.6948
33.106
32.5207
31.9387
31.3599
30.7844
30.2122
29.643
29.0771
28.5142
27.9544
27.3977
26.844
26.2932
25.7455
25.2007
24.6588
24.1199
23.5837
23.0505
22.52
21.9923
21.4674
20.9452
20.4257
19.9088
19.3946
18.8831
18.374
17.8675
17.3635
16.862
16.3629
15.8663
15.372
14.8801
14.3905
13.9032
13.4182
12.9355
12.455
11.9767
11.5005
11.0266
10.5547
10.0849
9.61709
9.15137
8.68762
8.22586
7.76601
7.30809
6.85202
6.39781
5.94538
5.49478
5.04591
4.59881
4.1534
3.70973
3.2677
2.82736
2.38857
1.95144
1.51586
1.08188
0.650532
0.212646
68.3499
63.6154
59.7655
57.5384
55.691
53.7886
52.008
50.4878
49.2124
48.1165
47.1489
46.2799
45.4914
44.7692
44.0997
43.4699
42.8673
42.2817
41.7054
41.1327
40.5604
39.9864
39.41
38.831
38.2497
37.6667
37.0826
36.4979
35.9132
35.3292
34.7462
34.1647
33.585
33.0074
32.432
31.859
31.2884
30.7202
30.1547
29.5916
29.0313
28.4736
27.9186
27.3663
26.8168
26.2699
25.7257
25.1842
24.6454
24.1092
23.5757
23.0447
22.5163
21.9906
21.4674
20.9469
20.4289
19.9136
19.4008
18.8905
18.3826
17.8771
17.374
16.8732
16.3747
15.8786
15.3848
14.8933
14.404
13.9169
13.432
12.9493
12.4687
11.9903
11.514
11.0398
10.5677
10.0976
9.62958
9.16357
8.69953
8.23743
7.77723
7.3189
6.86239
6.40769
5.95473
5.50353
5.05406
4.60633
4.16032
3.71601
3.27334
2.83231
2.39283
1.95484
1.51861
1.08315
0.652342
0.21287
65.0867
62.2331
59.3946
57.4618
55.723
53.8939
52.1396
50.6093
49.3142
48.204
47.2291
46.3558
45.5625
44.8336
44.1559
43.517
42.906
42.3129
41.7304
41.1529
40.5769
40
39.4214
38.8407
38.2581
37.674
37.089
36.5036
35.9185
35.334
34.7507
34.1689
33.5891
33.0113
32.4358
31.8627
31.2921
30.7239
30.1583
29.5952
29.0347
28.477
27.9219
27.3695
26.8198
26.2729
25.7286
25.1871
24.6482
24.1119
23.5783
23.0473
22.5188
21.993
21.4697
20.9491
20.4311
19.9156
19.4028
18.8924
18.3845
17.879
17.3759
16.875
16.3765
15.8803
15.3865
14.8949
14.4055
13.9184
13.4335
12.9508
12.4702
11.9917
11.5154
11.0411
10.569
10.0989
9.63087
9.16482
8.70075
8.23863
7.77841
7.32007
6.86357
6.40886
5.95591
5.50469
5.05518
4.60742
4.16136
3.717
3.27432
2.83327
2.39377
1.9558
1.51942
1.08467
0.654498
0.210889
63.5242
61.9053
59.5908
57.5674
55.7619
53.9865
52.2982
50.7992
49.5103
48.3965
47.4141
46.53
45.7223
44.9757
44.2786
43.6204
42.9912
42.3824
41.7866
41.1983
40.6136
40.0299
39.4459
38.8608
38.2747
37.6877
37.1004
36.513
35.9261
35.3402
34.7557
34.1729
33.5922
33.0138
32.4378
31.8643
31.2933
30.7249
30.159
29.5957
29.0351
28.4772
27.922
27.3695
26.8198
26.2728
25.7285
25.1869
24.648
24.1118
23.5782
23.0472
22.5187
21.9929
21.4696
20.949
20.4309
19.9155
19.4027
18.8923
18.3845
17.879
17.3759
16.8751
16.3766
15.8804
15.3865
14.8949
14.4056
13.9185
13.4336
12.9509
12.4703
11.9919
11.5155
11.0413
10.5692
10.0991
9.63103
9.16498
8.70091
8.2388
7.7786
7.32029
6.86382
6.40915
5.95621
5.505
5.05548
4.60769
4.16159
3.71721
3.2745
2.83343
2.39389
1.95592
1.51951
1.0856
0.656329
0.206732
62.53
61.3216
59.2801
57.3005
55.5502
53.8952
52.3165
50.8792
49.6155
48.5104
47.5311
46.6475
45.8378
45.0869
44.3833
43.7173
43.08
42.4632
41.8601
41.2653
40.6748
40.0859
39.4971
38.9078
38.3177
37.7272
37.1364
36.5459
35.9562
35.3677
34.7808
34.1959
33.6133
33.0332
32.4557
31.8808
31.3086
30.7391
30.1722
29.6081
29.0467
28.488
27.9321
27.3791
26.8288
26.2812
25.7364
25.1944
24.6551
24.1185
23.5845
23.0531
22.5244
21.9983
21.4747
20.9538
20.4355
19.9198
19.4067
18.8962
18.3882
17.8826
17.3793
16.8784
16.3798
15.8834
15.3894
14.8977
14.4082
13.921
13.436
12.9532
12.4725
11.994
11.5177
11.0434
10.5712
10.1011
9.63295
9.16687
8.70276
8.24062
7.7804
7.32208
6.8656
6.41091
5.95795
5.5067
5.05715
4.6093
4.16315
3.71871
3.27594
2.83482
2.39522
1.95727
1.52084
1.08777
0.659165
0.204414
61.725
60.6364
58.8543
57.0645
55.4309
53.8799
52.3852
50.9938
49.745
48.6396
47.6551
46.7651
45.9484
45.1898
44.4778
43.8031
43.1571
42.5322
41.9219
41.3206
40.7245
40.1307
39.5377
38.9446
38.3512
37.7575
37.164
36.571
35.979
35.3884
34.7996
34.2131
33.629
33.0476
32.4689
31.8929
31.3197
30.7493
30.1817
29.6168
29.0547
28.4955
27.9391
27.3855
26.8348
26.2868
25.7416
25.1992
24.6595
24.1225
23.5882
23.0566
22.5276
22.0012
21.4774
20.9563
20.4378
19.9219
19.4086
18.8979
18.3898
17.884
17.3806
16.8795
16.3808
15.8843
15.3902
14.8983
14.4088
13.9215
13.4364
12.9535
12.4728
11.9943
11.5179
11.0436
10.5713
10.1012
9.63304
9.16692
8.7028
8.24063
7.7804
7.32205
6.86555
6.41083
5.95785
5.50657
5.057
4.60912
4.16296
3.71849
3.2757
2.83455
2.39488
1.95694
1.52025
1.08789
0.658473
0.202704
61.1039
60.095
58.503
56.8822
55.3465
53.863
52.4238
51.07
49.8407
48.7437
47.7632
46.8752
46.0588
45.2985
44.5831
43.9032
43.251
42.6193
42.002
41.3941
40.7917
40.1922
39.594
38.9962
38.3985
37.801
37.2041
36.6081
36.0134
35.4204
34.8295
34.241
33.6553
33.0722
32.4921
31.9148
31.3405
30.7689
30.2002
29.6344
29.0715
28.5114
27.9542
27.3998
26.8483
26.2996
25.7538
25.2107
24.6704
24.1329
23.5981
23.0659
22.5365
22.0096
21.4855
20.9639
20.4451
19.9289
19.4153
18.9043
18.3958
17.8898
17.3862
16.8849
16.3859
15.8893
15.395
14.9031
14.4134
13.926
13.4408
12.9579
12.4771
11.9986
11.5221
11.0478
10.5755
10.1053
9.63716
9.17103
8.70688
8.24471
7.78445
7.3261
6.86957
6.41484
5.96184
5.51059
5.06102
4.61319
4.16704
3.7226
3.27979
2.83863
2.39887
1.96092
1.52376
1.09207
0.660487
0.205403
60.6683
59.7135
58.2134
56.6766
55.1929
53.7459
52.3424
51.0237
49.825
48.754
47.7954
46.9257
46.1232
45.3722
44.6615
43.9824
43.3278
42.6915
42.0683
41.4537
40.8444
40.2381
39.6336
39.03
38.4272
37.8252
37.2245
36.6252
36.0279
35.4328
34.8403
34.2505
33.6636
33.0797
32.4989
31.921
31.346
30.774
30.2049
29.6387
29.0754
28.5149
27.9573
27.4026
26.8508
26.3017
25.7555
25.2121
24.6715
24.1336
23.5985
23.0661
22.5364
22.0093
21.4849
20.9632
20.4442
19.9278
19.414
18.9028
18.3941
17.8879
17.3841
16.8827
16.3836
15.8869
15.3926
14.9006
14.4108
13.9234
13.4382
12.9552
12.4744
11.9958
11.5194
11.045
10.5728
10.1026
9.63446
9.16833
8.70419
8.24203
7.78178
7.32342
6.86691
6.41221
5.95927
5.50807
5.0586
4.61086
4.16482
3.72046
3.27773
2.83663
2.39688
1.95899
1.52139
1.09056
0.656778
0.20506
60.408
59.5081
58.0978
56.6475
55.2169
53.7892
52.391
51.0777
49.8882
48.829
47.8832
47.0258
46.2338
45.49
44.7827
44.1035
43.4456
42.8035
42.1728
41.5495
40.9313
40.316
39.7028
39.0912
38.4811
37.8727
37.2663
36.6622
36.0608
35.4622
34.8667
34.2744
33.6854
33.0997
32.5172
31.9378
31.3615
30.7883
30.218
29.6508
29.0865
28.5251
27.9666
27.4111
26.8584
26.3086
25.7617
25.2176
24.6763
24.1378
23.6022
23.0692
22.5391
22.0116
21.4869
20.9648
20.4455
19.9287
19.4147
18.9032
18.3942
17.8878
17.3838
16.8822
16.383
15.8862
15.3917
14.8996
14.4098
13.9223
13.4371
12.9541
12.4733
11.9947
11.5182
11.0439
10.5717
10.1016
9.63346
9.16736
8.70328
8.24114
7.78095
7.32264
6.8662
6.41156
5.95874
5.50766
5.05835
4.61077
4.16491
3.72071
3.27816
2.83722
2.39761
1.95991
1.52214
1.09224
0.6571
0.205808
60.358
59.2266
57.7367
56.3925
55.0853
53.7224
52.3484
51.0452
49.8625
48.8098
47.8713
47.0219
46.2379
45.5015
44.7999
44.1244
43.4682
42.8261
42.194
41.5685
40.9475
40.3294
39.7134
39.0992
38.4869
37.8767
37.2689
36.6637
36.0615
35.4624
34.8665
34.2739
33.6847
33.0987
32.5159
31.9362
31.3596
30.786
30.2153
29.6476
29.0829
28.521
27.9621
27.406
26.8528
26.3025
25.7551
25.2105
24.6688
24.1299
23.5938
23.0605
22.53
22.0022
21.4772
20.9549
20.4353
19.9183
19.404
18.8923
18.3832
17.8765
17.3724
16.8707
16.3714
15.8745
15.3801
14.8879
14.3981
13.9106
13.4254
12.9425
12.4617
11.9832
11.5068
11.0326
10.5604
10.0904
9.62235
9.15639
8.69239
8.23039
7.77029
7.31212
6.85578
6.40132
5.94863
5.49776
5.04862
4.60125
4.15558
3.71163
3.26931
2.82869
2.38942
1.95223
1.51486
1.08574
0.651228
0.201248
61.5661
60.0508
58.1024
56.5173
55.1553
53.8002
52.4365
51.1359
49.9515
48.897
47.9583
47.1108
46.3297
45.596
44.8959
44.2201
43.5617
42.9156
42.2781
41.6464
41.0185
40.3934
39.7704
39.1495
38.5309
37.9149
37.3017
36.6918
36.0853
35.4823
34.883
34.2873
33.6951
33.1065
32.5213
31.9395
31.3609
30.7855
30.2133
29.6442
29.0782
28.5152
27.9552
27.3982
26.8443
26.2933
25.7453
25.2002
24.6581
24.1188
23.5825
23.049
22.5183
21.9904
21.4654
20.943
20.4235
19.9065
19.3923
18.8807
18.3717
17.8651
17.3612
16.8596
16.3606
15.8639
15.3697
14.8778
14.3883
13.901
13.4161
12.9334
12.453
11.9747
11.4986
11.0246
10.5528
10.0831
9.61538
9.14967
8.68601
8.22427
7.76451
7.3066
6.85062
6.39642
5.94408
5.49348
5.0447
4.59761
4.1523
3.70864
3.26672
2.82641
2.38774
1.95071
1.5152
1.08177
0.650522
0.209587
67.3474
63.0092
59.4568
57.3252
55.5565
53.745
52.0209
50.5198
49.2511
48.1651
47.2105
46.3527
45.5702
44.849
44.177
43.5426
42.9348
42.3443
41.7632
41.1862
40.6096
40.0314
39.451
38.8683
38.2835
37.6972
37.11
36.5226
35.9356
35.3494
34.7645
34.1814
33.6003
33.0213
32.4448
31.8706
31.2991
30.7301
30.1637
29.5999
29.0389
28.4806
27.9251
27.3723
26.8223
26.275
25.7304
25.1886
24.6494
24.1129
23.579
23.0478
22.5192
21.9932
21.4698
20.9491
20.431
19.9155
19.4026
18.8921
18.3841
17.8785
17.3753
16.8744
16.3759
15.8797
15.3858
14.8942
14.4048
13.9177
13.4327
12.95
12.4694
11.9909
11.5146
11.0403
10.5682
10.0981
9.63009
9.16405
8.69999
8.23789
7.77767
7.31933
6.8628
6.40808
5.9551
5.50388
5.05439
4.60666
4.16064
3.71632
3.27365
2.83261
2.39312
1.95513
1.51895
1.08353
0.65343
0.212293
64.0994
61.6488
59.0741
57.2054
55.5387
53.8195
52.148
50.6547
49.3721
48.2695
47.3031
46.4376
45.6492
44.9216
44.2421
43.5994
42.9835
42.3853
41.7977
41.2153
40.6344
40.0529
39.4697
38.8847
38.2981
37.7102
37.1217
36.5332
35.9451
35.358
34.7724
34.1887
33.6071
33.0278
32.4509
31.8766
31.3048
30.7357
30.1691
29.6052
29.0441
28.4856
27.9299
27.377
26.8268
26.2794
25.7347
25.1927
24.6535
24.1169
23.5829
23.0516
22.5229
21.9968
21.4733
20.9524
20.4342
19.9186
19.4056
18.8951
18.3871
17.8815
17.3782
16.8773
16.3786
15.8823
15.3884
14.8967
14.4073
13.9201
13.4351
12.9523
12.4717
11.9932
11.5168
11.0425
10.5703
10.1002
9.63214
9.16607
8.70197
8.23984
7.77961
7.32125
6.86473
6.41
5.95702
5.50576
5.05622
4.60842
4.16233
3.71795
3.27524
2.83418
2.39465
1.95672
1.52036
1.08596
0.656687
0.209867
62.5306
61.3225
59.2805
57.2993
55.5477
53.893
52.3155
50.8793
49.6162
48.5113
47.532
46.6482
45.8383
45.0872
44.3835
43.7174
43.08
42.4631
41.86
41.2652
40.6747
40.0858
39.4971
38.9078
38.3178
37.7272
37.1365
36.546
35.9563
35.3677
34.7808
34.1959
33.6133
33.0332
32.4557
31.8808
31.3086
30.7391
30.1722
29.6081
29.0467
28.488
27.9321
27.3791
26.8288
26.2812
25.7364
25.1944
24.6551
24.1184
23.5845
23.0531
22.5244
21.9982
21.4747
20.9537
20.4354
19.9198
19.4067
18.8962
18.3882
17.8826
17.3793
16.8784
16.3798
15.8834
15.3894
14.8977
14.4082
13.921
13.436
12.9532
12.4725
11.994
11.5176
11.0434
10.5712
10.101
9.63293
9.16685
8.70275
8.24062
7.7804
7.32209
6.8656
6.41092
5.95795
5.5067
5.05714
4.60929
4.16312
3.71868
3.27591
2.8348
2.3952
1.95727
1.52085
1.08778
0.659174
0.20442
61.536
60.7475
58.9906
57.037
55.3208
53.79
52.3436
50.9907
49.7645
48.669
47.686
46.7932
45.9721
45.209
44.4932
43.8156
43.1677
42.5417
41.9311
41.3301
40.7346
40.1416
39.5495
38.9571
38.3641
37.7707
37.1771
36.5838
35.9912
35.3999
34.8104
34.223
33.6381
33.0558
32.4764
31.8998
31.3261
30.7552
30.1872
29.622
29.0597
28.5002
27.9436
27.3899
26.839
26.2909
25.7457
25.2032
24.6635
24.1266
23.5923
23.0606
22.5316
22.0051
21.4813
20.9601
20.4415
19.9256
19.4123
18.9016
18.3934
17.8877
17.3843
16.8832
16.3844
15.8879
15.3937
14.9018
14.4122
13.9248
13.4396
12.9567
12.476
11.9974
11.5209
11.0465
10.5743
10.104
9.63588
9.16974
8.7056
8.24343
7.7832
7.32487
6.86839
6.41368
5.9607
5.5094
5.05978
4.61184
4.16558
3.72103
3.27816
2.83695
2.39724
1.95932
1.52278
1.09102
0.662272
0.201894
60.7296
60.0633
58.5701
56.8021
55.1952
53.7736
52.4277
51.1372
49.9344
48.8375
47.842
46.9329
46.0951
45.3162
44.5862
43.8959
43.2371
42.6021
41.9841
41.3773
40.7773
40.1808
39.5858
38.9909
38.3958
37.8003
37.2047
36.6094
36.0149
35.4217
34.8303
34.2411
33.6545
33.0707
32.4899
31.912
31.3372
30.7653
30.1964
29.6305
29.0675
28.5075
27.9504
27.3962
26.8449
26.2964
25.7508
25.2081
24.6681
24.1308
23.5963
23.0644
22.5352
22.0086
21.4845
20.9632
20.4444
19.9283
19.4148
18.904
18.3957
17.8898
17.3863
16.8851
16.3862
15.8896
15.3953
14.9032
14.4135
13.926
13.4407
12.9577
12.4769
11.9983
11.5217
11.0473
10.575
10.1048
9.63659
9.17044
8.70626
8.24409
7.78383
7.3255
6.86898
6.41426
5.96123
5.50992
5.06025
4.61227
4.16595
3.72136
3.2784
2.83713
2.39726
1.95933
1.52221
1.09154
0.660031
0.201289
60.1048
59.5193
58.2221
56.627
55.1162
53.7638
52.4816
51.2382
50.0596
48.9703
47.9733
47.0588
46.2138
45.4271
44.6889
43.9903
43.3236
42.681
42.0561
41.4431
40.8376
40.2361
39.6368
39.038
38.4395
37.8408
37.2424
36.6445
36.0476
35.4523
34.859
34.268
33.6799
33.0946
32.5124
31.9333
31.3573
30.7844
30.2145
29.6477
29.0839
28.5231
27.9652
27.4103
26.8583
26.3092
25.763
25.2196
24.6791
24.1413
23.6062
23.0739
22.5442
22.0172
21.4928
20.971
20.4519
19.9355
19.4217
18.9106
18.402
17.8958
17.3921
16.8907
16.3916
15.8948
15.4004
14.9082
14.4184
13.9308
13.4455
12.9624
12.4815
12.0028
11.5262
11.0518
10.5795
10.1092
9.64103
9.17485
8.71069
8.24849
7.78824
7.32987
6.87336
6.41862
5.96562
5.5143
5.06469
4.61673
4.17047
3.72587
3.28292
2.84159
2.40159
1.96356
1.52555
1.09594
0.659341
0.206102
59.6657
59.1366
57.9358
56.4252
54.9623
53.643
52.3983
51.1937
50.0497
48.9881
48.0133
47.1162
46.2845
45.5064
44.773
44.0752
43.4065
42.7592
42.1282
41.5077
40.8946
40.2852
39.6785
39.0727
38.468
37.8637
37.2607
36.6588
36.0589
35.461
34.8659
34.2735
33.6844
33.0984
32.5158
31.9362
31.3601
30.7869
30.217
29.65
29.0862
28.5253
27.9674
27.4123
26.8602
26.3108
25.7645
25.2208
24.68
24.1419
23.6067
23.074
22.5441
22.0169
21.4923
20.9703
20.4511
19.9345
19.4205
18.9092