/*--------------------------------*- C++ -*----------------------------------*\
| =========                 |                                                 |
| \\      /  F ield         | OpenFOAM: The Open Source CFD Toolbox           |
|  \\    /   O peration     | Version:  5.x                                   |
|   \\  /    A nd           | Web:      www.OpenFOAM.org                      |
|    \\/     M anipulation  |                                                 |
\*---------------------------------------------------------------------------*/
/*   Windows 32 and 64 bit porting by blueCAPE: http://www.bluecape.com.pt   *\
|  Based on Windows porting (2.0.x v4) by Symscape: http://www.symscape.com   |
\*---------------------------------------------------------------------------*/
FoamFile
{
    version     2.0;
    format      ascii;
    class       volVectorField;
    location    "20";
    object      U;
}
// * * * * * * * * * * * * * * * * * * * * * * * * * * * * * * * * * * * * * //

dimensions      [0 1 -1 0 0 0 0];

internalField   nonuniform List<vector> 
10000
(
(9.21757 0.142749 0.142734)
(7.91775 0.263352 0.263323)
(6.5473 0.260989 0.260955)
(5.179 0.206848 0.206851)
(4.06461 0.139412 0.139485)
(3.28131 0.0801012 0.0802112)
(2.74548 0.0406744 0.0407565)
(2.35921 0.0213624 0.0213859)
(2.06669 0.0145155 0.0144969)
(1.83908 0.0122224 0.0121922)
(1.6582 0.010442 0.0104186)
(1.51237 0.00838085 0.00836687)
(1.39465 0.00639944 0.00638994)
(1.30051 0.00480038 0.00478956)
(1.2263 0.00360305 0.00358724)
(1.1687 0.00270906 0.00268687)
(1.12462 0.00202762 0.00199929)
(1.09125 0.00151055 0.00147722)
(1.06613 0.00112724 0.00109119)
(1.04719 0.000857729 0.000821689)
(1.03277 0.000679233 0.00064589)
(1.02153 0.000574201 0.000545344)
(1.01248 0.000518699 0.000495604)
(1.00488 0.000495237 0.000478432)
(0.998204 0.000486656 0.000476256)
(0.992102 0.000485679 0.000481029)
(0.986331 0.000483897 0.000484232)
(0.980736 0.000480077 0.000484386)
(0.975229 0.000470908 0.000478257)
(0.969749 0.000459012 0.000468202)
(0.96427 0.000441885 0.000452141)
(0.958786 0.00042209 0.000432907)
(0.953316 0.000398268 0.000409466)
(0.947877 0.000374814 0.000385861)
(0.942493 0.000350521 0.000360991)
(0.937179 0.000329043 0.000338514)
(0.931956 0.000309044 0.000317206)
(0.926823 0.000293858 0.000300115)
(0.921774 0.000280475 0.00028457)
(0.916803 0.000270078 0.000272099)
(0.911909 0.000259682 0.0002601)
(0.907088 0.000251251 0.00025042)
(0.902338 0.000242411 0.000240826)
(0.897655 0.000234939 0.000233078)
(0.893045 0.000227228 0.000225572)
(0.888506 0.000221408 0.000220134)
(0.884036 0.000215891 0.000215216)
(0.87963 0.000212013 0.000212225)
(0.875293 0.000208223 0.000209707)
(0.871019 0.000205784 0.000208719)
(0.866805 0.000203461 0.000207935)
(0.862643 0.000202309 0.000208281)
(0.858528 0.000201067 0.000208361)
(0.85445 0.000200331 0.00020854)
(0.850403 0.000199006 0.00020769)
(0.846382 0.000197727 0.000206556)
(0.842393 0.000195632 0.000204403)
(0.838444 0.000193306 0.00020184)
(0.834543 0.000190766 0.000198876)
(0.830698 0.000189029 0.000196554)
(0.826911 0.000187947 0.000194682)
(0.823179 0.000187609 0.000193302)
(0.819492 0.000187978 0.000192361)
(0.815841 0.000189065 0.00019208)
(0.812221 0.000190215 0.000191984)
(0.808631 0.000190574 0.000191407)
(0.805072 0.000190301 0.000190476)
(0.801549 0.00018956 0.000189397)
(0.798062 0.000188658 0.000188374)
(0.794613 0.000187147 0.00018693)
(0.791198 0.000185869 0.000185714)
(0.787817 0.000184675 0.000184635)
(0.784466 0.00018365 0.000183771)
(0.781145 0.000181685 0.000182125)
(0.777853 0.000179784 0.000180496)
(0.77459 0.000177729 0.000178668)
(0.771356 0.000176032 0.000177014)
(0.768155 0.000173468 0.000174368)
(0.764987 0.000171411 0.000171894)
(0.761855 0.000169523 0.00016938)
(0.758758 0.000168554 0.000167625)
(0.755699 0.000166799 0.00016524)
(0.75268 0.000165476 0.000163408)
(0.749705 0.000163556 0.000161275)
(0.746768 0.000161749 0.000159502)
(0.743874 0.000158356 0.000156533)
(0.741016 0.000155539 0.000154186)
(0.73819 0.00015281 0.000151991)
(0.735388 0.000151209 0.000150862)
(0.73261 0.000148501 0.000148779)
(0.729859 0.000146298 0.000147086)
(0.727137 0.000143501 0.000144746)
(0.724449 0.000141148 0.000142651)
(0.721798 0.000138411 0.000140124)
(0.719208 0.000134043 0.000135578)
(0.716589 0.00014067 0.000141597)
(0.714217 0.000107756 0.000107937)
(0.711292 0.000180469 0.000180248)
(0.710276 -0.000146627 -0.000146906)
(0.706949 0.000372844 0.000373083)
(9.75094 0.214279 0.152561)
(9.37515 0.410455 0.30893)
(8.77821 0.447114 0.345047)
(7.95903 0.421478 0.320004)
(7.09075 0.365712 0.265903)
(6.28478 0.29481 0.202881)
(5.57108 0.225264 0.145287)
(4.95318 0.16818 0.100385)
(4.43109 0.125957 0.0687211)
(3.99982 0.095773 0.0473366)
(3.64867 0.0737874 0.0328304)
(3.36449 0.0570941 0.0227537)
(3.13479 0.0439636 0.0156833)
(2.94894 0.0334791 0.010828)
(2.79833 0.0251163 0.00766025)
(2.67614 0.0185074 0.00574828)
(2.5769 0.0133575 0.00470346)
(2.49616 0.0094268 0.00420475)
(2.43024 0.00649587 0.00399975)
(2.37609 0.00437819 0.00392544)
(2.33124 0.00291467 0.00388091)
(2.29364 0.00197352 0.00381939)
(2.26166 0.00143603 0.00371804)
(2.23399 0.00119789 0.00357512)
(2.20962 0.00116903 0.00339283)
(2.18778 0.00127818 0.00318268)
(2.16789 0.001468 0.00295259)
(2.1495 0.00169755 0.00271388)
(2.1323 0.00193584 0.00247241)
(2.11604 0.00216509 0.00223662)
(2.10054 0.0023694 0.00200892)
(2.08567 0.0025431 0.00179388)
(2.07136 0.0026812 0.00159105)
(2.05753 0.00278866 0.00140318)
(2.04416 0.00286497 0.00122907)
(2.03122 0.00291723 0.00107158)
(2.0187 0.0029476 0.000930068)
(2.00656 0.00296531 0.000806995)
(1.99477 0.00296976 0.000700706)
(1.98332 0.00296537 0.000611978)
(1.97217 0.00294999 0.00053785)
(1.96129 0.00292854 0.000477417)
(1.95068 0.00289864 0.000427302)
(1.94032 0.00286433 0.000386768)
(1.93018 0.00282437 0.000353277)
(1.92026 0.00278384 0.000326055)
(1.91055 0.00274083 0.00030357)
(1.90103 0.00269862 0.000286036)
(1.8917 0.0026551 0.000272591)
(1.88253 0.0026136 0.00026257)
(1.87353 0.00257169 0.000255382)
(1.86468 0.00253217 0.000251069)
(1.85596 0.00249288 0.000249115)
(1.84736 0.00245612 0.000248391)
(1.83887 0.00241885 0.000248796)
(1.83047 0.00238275 0.000250481)
(1.82216 0.00234549 0.000253418)
(1.81394 0.00230914 0.000256041)
(1.80582 0.00227212 0.000258248)
(1.79781 0.00223737 0.000259457)
(1.78991 0.00220411 0.000259814)
(1.7821 0.00217445 0.000258007)
(1.77439 0.00214675 0.000255834)
(1.76677 0.00212224 0.0002547)
(1.75921 0.00209855 0.000256547)
(1.75173 0.00207558 0.000259941)
(1.74431 0.00205124 0.000265092)
(1.73696 0.0020268 0.000270526)
(1.72968 0.00200139 0.000275929)
(1.72246 0.00197611 0.000278952)
(1.71532 0.00195049 0.000280769)
(1.70824 0.001926 0.000281453)
(1.70123 0.00190162 0.000282182)
(1.69427 0.00187734 0.000281381)
(1.68737 0.00185258 0.000280599)
(1.68054 0.00182851 0.000279778)
(1.67376 0.00180456 0.000279922)
(1.66704 0.00178064 0.000278977)
(1.66039 0.0017567 0.000278375)
(1.6538 0.00173385 0.000277908)
(1.64727 0.00171174 0.000278951)
(1.64082 0.00168966 0.000279328)
(1.63443 0.0016673 0.000280055)
(1.62811 0.00164501 0.000279428)
(1.62186 0.00162247 0.000277522)
(1.61569 0.00159913 0.000271777)
(1.60958 0.00157616 0.000265009)
(1.60355 0.00155486 0.000258523)
(1.59756 0.00153525 0.000255203)
(1.59164 0.00151568 0.00025347)
(1.58577 0.00149593 0.000254587)
(1.57996 0.00147598 0.000256523)
(1.57421 0.00145558 0.000258429)
(1.56851 0.00143581 0.000258175)
(1.56293 0.00141303 0.000253157)
(1.55729 0.00140801 0.000259061)
(1.55206 0.00133781 0.000228302)
(1.5459 0.00141776 0.000303084)
(1.54277 0.000778065 -0.000254905)
(1.53491 0.00153356 0.000681073)
(9.6122 0.105643 0.14994)
(9.02182 0.214507 0.296282)
(8.41964 0.249899 0.322497)
(7.76422 0.262528 0.296829)
(7.12924 0.260011 0.252098)
(6.55014 0.239309 0.200912)
(6.02096 0.207026 0.151224)
(5.53682 0.172339 0.108398)
(5.10275 0.140008 0.0743139)
(4.72442 0.110996 0.0484399)
(4.40284 0.085186 0.0293797)
(4.13457 0.0625881 0.0157368)
(3.91357 0.0433445 0.00635916)
(3.73268 0.0274946 0.000330763)
(3.58485 0.0148815 -0.00311087)
(3.46359 0.00518498 -0.00462406)
(3.36345 -0.00203179 -0.00479863)
(3.28021 -0.00722568 -0.00412992)
(3.21047 -0.010807 -0.00301376)
(3.15144 -0.0131209 -0.0017322)
(3.10087 -0.0144463 -0.000476153)
(3.05694 -0.0150038 0.000649784)
(3.01821 -0.0149746 0.00159216)
(2.98355 -0.0145109 0.00234106)
(2.95211 -0.0137397 0.0029036)
(2.92324 -0.0127661 0.00330467)
(2.89645 -0.0116751 0.00356818)
(2.87138 -0.0105334 0.00372216)
(2.84777 -0.00939189 0.00378752)
(2.82541 -0.00828692 0.00378629)
(2.80415 -0.00724507 0.0037329)
(2.78387 -0.00628075 0.00364155)
(2.76448 -0.0054008 0.00351964)
(2.74592 -0.00460334 0.00337569)
(2.72815 -0.00388547 0.00321471)
(2.7111 -0.00323939 0.00304467)
(2.69475 -0.0026581 0.00287045)
(2.67905 -0.0021325 0.00269902)
(2.66393 -0.00165825 0.00253408)
(2.64936 -0.00122987 0.00238008)
(2.63528 -0.000844443 0.00223759)
(2.62165 -0.000497146 0.00210747)
(2.60844 -0.000185453 0.00198844)
(2.59561 9.55952e-005 0.00188009)
(2.58313 0.000349525 0.00178044)
(2.57098 0.000580973 0.00168836)
(2.55913 0.000792063 0.00160298)
(2.54756 0.00098605 0.00152412)
(2.53625 0.00116425 0.00145113)
(2.52517 0.00132857 0.001383)
(2.51431 0.00147919 0.00131983)
(2.50365 0.00161781 0.00126152)
(2.49317 0.00174456 0.00120833)
(2.48285 0.00186025 0.00115954)
(2.47266 0.00196464 0.0011163)
(2.46259 0.00205935 0.00107868)
(2.45263 0.00214502 0.00104652)
(2.44278 0.00222324 0.0010171)
(2.43304 0.00229495 0.000989331)
(2.4234 0.00236223 0.000960789)
(2.41388 0.00242556 0.000930798)
(2.40447 0.00248531 0.000897885)
(2.39516 0.00254119 0.000864913)
(2.38593 0.00259363 0.000834168)
(2.37678 0.00264189 0.000809032)
(2.3677 0.00268502 0.000788974)
(2.35868 0.00272228 0.000774588)
(2.34972 0.00275399 0.000763337)
(2.34083 0.0027801 0.00075385)
(2.33201 0.00280068 0.00074292)
(2.32325 0.00281646 0.000731378)
(2.31455 0.00282836 0.000718729)
(2.30591 0.00283646 0.000706167)
(2.29733 0.00284043 0.000692521)
(2.2888 0.00284099 0.000679774)
(2.28034 0.00283907 0.000667723)
(2.27192 0.00283505 0.000657441)
(2.26356 0.00282867 0.00064734)
(2.25526 0.00282091 0.000638985)
(2.24702 0.00281261 0.000631599)
(2.23884 0.00280387 0.000625951)
(2.23073 0.0027935 0.000619805)
(2.22268 0.00278152 0.00061379)
(2.2147 0.00276764 0.000605575)
(2.2068 0.00275159 0.000594853)
(2.19897 0.00273277 0.000579847)
(2.19121 0.00271301 0.000564157)
(2.18353 0.00269378 0.000549707)
(2.1759 0.00267559 0.000539884)
(2.16833 0.00265708 0.000534204)
(2.16081 0.00263846 0.00053393)
(2.15336 0.0026197 0.000536105)
(2.14596 0.00260092 0.00053861)
(2.13863 0.00258312 0.000538593)
(2.1314 0.00256428 0.000534891)
(2.12411 0.00255961 0.000538713)
(2.11727 0.00249715 0.000510409)
(2.10926 0.00255283 0.000574242)
(2.10509 0.00200549 -0.000176495)
(2.09401 0.00258452 0.00114264)
(9.6025 0.0604995 0.149757)
(8.94938 0.150648 0.296672)
(8.27268 0.196965 0.321821)
(7.55513 0.215293 0.29562)
(6.8807 0.216004 0.251276)
(6.29492 0.202288 0.200274)
(5.79241 0.179203 0.14987)
(5.35796 0.152765 0.105713)
(4.98372 0.126407 0.0702511)
(4.66609 0.101023 0.0432966)
(4.40118 0.0767516 0.0235067)
(4.18369 0.0539693 0.00937427)
(4.00729 0.0332893 -0.000383648)
(3.86529 0.015274 -0.00676265)
(3.75118 0.000248016 -0.0105474)
(3.65936 -0.0117529 -0.0123784)
(3.58518 -0.0209263 -0.0127896)
(3.5247 -0.0276078 -0.0122268)
(3.47475 -0.032179 -0.0110641)
(3.43283 -0.0350122 -0.00959403)
(3.39696 -0.0364513 -0.00803021)
(3.36561 -0.0368013 -0.00650864)
(3.3376 -0.0363265 -0.00511132)
(3.31204 -0.0352506 -0.00387526)
(3.28827 -0.0337587 -0.00281314)
(3.26584 -0.032001 -0.00191685)
(3.24443 -0.030096 -0.00117248)
(3.22382 -0.0281358 -0.000560868)
(3.20388 -0.0261878 -6.46497e-005)
(3.18454 -0.024302 0.000333642)
(3.16574 -0.0225101 0.000648306)
(3.14745 -0.0208316 0.000891255)
(3.12967 -0.019272 0.00107161)
(3.11242 -0.0178319 0.00119697)
(3.09569 -0.0165038 0.00127565)
(3.07948 -0.0152792 0.00131527)
(3.06381 -0.0141455 0.00132463)
(3.04864 -0.0130952 0.00131251)
(3.03396 -0.0121197 0.00128751)
(3.01974 -0.0112141 0.00125559)
(3.00595 -0.0103706 0.00122151)
(2.99256 -0.00958534 0.00118712)
(2.97956 -0.00885116 0.00115445)
(2.96691 -0.00816403 0.00112319)
(2.9546 -0.00751663 0.00109372)
(2.94261 -0.00690613 0.00106452)
(2.93092 -0.00632709 0.00103654)
(2.9195 -0.00577814 0.00100884)
(2.90835 -0.00525506 0.000982327)
(2.89744 -0.00475834 0.000955282)
(2.88675 -0.00428519 0.000929458)
(2.87626 -0.00383651 0.000904095)
(2.86596 -0.00340977 0.00088119)
(2.85582 -0.0030065 0.000859634)
(2.84582 -0.00262403 0.000842158)
(2.83594 -0.00226239 0.000827956)
(2.82618 -0.00191785 0.000818105)
(2.81652 -0.00159064 0.000808871)
(2.80697 -0.00127738 0.000799911)
(2.79752 -0.000978317 0.000787454)
(2.78818 -0.000691066 0.000771642)
(2.77894 -0.000417648 0.000750385)
(2.76979 -0.00015672 0.000727874)
(2.76072 9.00137e-005 0.000705962)
(2.75171 0.000323906 0.000689393)
(2.74275 0.00054278 0.000677517)
(2.73385 0.00074813 0.000672138)
(2.72499 0.000938754 0.000669924)
(2.71618 0.00111647 0.000670026)
(2.70742 0.00127993 0.000668227)
(2.69871 0.00143137 0.000665673)
(2.69005 0.00157027 0.000660697)
(2.68142 0.00169859 0.000655131)
(2.67283 0.00181501 0.000647285)
(2.66428 0.00192186 0.000639966)
(2.65576 0.00201908 0.000632276)
(2.64728 0.00210898 0.000626091)
(2.63884 0.00219089 0.000619424)
(2.63044 0.00226732 0.00061457)
(2.62208 0.00233801 0.000609932)
(2.61376 0.00240458 0.000606761)
(2.60549 0.00246534 0.000602259)
(2.59727 0.00252169 0.000597697)
(2.5891 0.0025723 0.00059015)
(2.58098 0.00261813 0.000580177)
(2.57293 0.00265769 0.00056584)
(2.56493 0.00269334 0.000551647)
(2.55699 0.002725 0.000538871)
(2.54909 0.00275428 0.000531648)
(2.54123 0.0027797 0.000529111)
(2.53341 0.00280306 0.000533264)
(2.52563 0.00282387 0.000540203)
(2.5179 0.00284409 0.000548273)
(2.51021 0.00286374 0.000553369)
(2.50262 0.00288408 0.000555177)
(2.49493 0.00291165 0.000560709)
(2.48772 0.00291293 0.000529218)
(2.47916 0.0029689 0.000592833)
(2.47495 0.00275192 -0.000307706)
(2.46288 0.00307714 0.00124986)
(9.59973 0.040687 0.149819)
(8.9261 0.110421 0.298351)
(8.21766 0.152977 0.325156)
(7.46967 0.170422 0.299279)
(6.7684 0.171292 0.254093)
(6.16118 0.160833 0.201178)
(5.64739 0.142983 0.147871)
(5.214 0.12171 0.100513)
(4.85138 0.0997088 0.0624455)
(4.5525 0.077964 0.0340226)
(4.31034 0.0566661 0.0139515)
(4.11714 0.0360826 0.000442367)
(3.96473 0.01676 -0.00818703)
(3.84511 -0.000665578 -0.0132869)
(3.75123 -0.015647 -0.0158894)
(3.67716 -0.0279172 -0.0167394)
(3.61813 -0.0374552 -0.0163941)
(3.57047 -0.0444279 -0.0152844)
(3.53137 -0.0491281 -0.0137463)
(3.49871 -0.0519135 -0.0120286)
(3.47087 -0.0531496 -0.0103024)
(3.44658 -0.0531794 -0.00867124)
(3.42489 -0.0523051 -0.00719172)
(3.40509 -0.0507828 -0.00588461)
(3.38662 -0.0488231 -0.00475138)
(3.36912 -0.046594 -0.00377769)
(3.35232 -0.0442273 -0.00294728)
(3.33605 -0.0418219 -0.00224028)
(3.32021 -0.0394512 -0.0016418)
(3.30472 -0.0371662 -0.00113546)
(3.28957 -0.035 -0.00071061)
(3.27476 -0.0329696 -0.000356501)
(3.26028 -0.0310798 -6.79545e-005)
(3.24616 -0.0293281 0.00016196)
(3.23243 -0.0277062 0.000338293)
(3.21908 -0.0262027 0.000470183)
(3.20614 -0.0248049 0.00056463)
(3.19359 -0.0235034 0.000629939)
(3.18143 -0.0222887 0.000672862)
(3.16963 -0.0211531 0.000700997)
(3.15819 -0.0200875 0.000718611)
(3.14707 -0.0190855 0.000729776)
(3.13627 -0.0181394 0.000736373)
(3.12576 -0.0172431 0.00074042)
(3.11553 -0.0163894 0.000741876)
(3.10556 -0.0155743 0.00074123)
(3.09584 -0.014793 0.000738583)
(3.08636 -0.014043 0.000734696)
(3.07708 -0.013321 0.00072915)
(3.06802 -0.0126267 0.000721919)
(3.05913 -0.0119587 0.000713368)
(3.05042 -0.0113171 0.000704544)
(3.04186 -0.0107009 0.000696046)
(3.03342 -0.0101108 0.000688645)
(3.0251 -0.00954512 0.00068364)
(3.01688 -0.00900258 0.000681912)
(3.00874 -0.00848004 0.00068283)
(3.00068 -0.00797625 0.000684383)
(2.99271 -0.00748907 0.000684643)
(2.98481 -0.00701817 0.000681552)
(2.977 -0.00656313 0.000673898)
(2.96926 -0.00612573 0.000661434)
(2.96159 -0.00570642 0.000646878)
(2.95396 -0.0053063 0.000633395)
(2.94637 -0.00492513 0.000624045)
(2.93881 -0.00456379 0.000619755)
(2.93127 -0.00422152 0.000621169)
(2.92374 -0.00389846 0.000626561)
(2.91623 -0.00359387 0.000633925)
(2.90874 -0.00330831 0.000640513)
(2.90126 -0.00304079 0.000646096)
(2.89379 -0.00279114 0.000649923)
(2.88632 -0.00255819 0.000652276)
(2.87886 -0.00234181 0.000652718)
(2.8714 -0.00214038 0.000652981)
(2.86394 -0.00195294 0.000653184)
(2.85648 -0.00177765 0.000654044)
(2.84902 -0.00161386 0.000654854)
(2.84156 -0.00145958 0.000656911)
(2.83411 -0.00131401 0.000659695)
(2.82665 -0.00117606 0.000663404)
(2.81921 -0.00104617 0.000666499)
(2.81178 -0.000923742 0.000669361)
(2.80436 -0.000809263 0.000670276)
(2.79697 -0.000702623 0.000668975)
(2.78959 -0.000604392 0.000664818)
(2.78224 -0.000513393 0.000661067)
(2.7749 -0.00042912 0.000659582)
(2.76757 -0.000350471 0.000663027)
(2.76026 -0.000277279 0.000671319)
(2.75295 -0.000207916 0.000685458)
(2.74565 -0.000141738 0.000702523)
(2.73838 -7.69818e-005 0.00072059)
(2.73112 -1.38804e-005 0.00073596)
(2.72392 5.20875e-005 0.00075004)
(2.71661 0.000119215 0.000764344)
(2.70972 0.000197994 0.000754255)
(2.70146 0.000284565 0.000822184)
(2.69752 0.000378331 -7.37832e-005)
(2.68569 0.000710761 0.00146562)
(9.59782 0.0266322 0.149827)
(8.91041 0.0729296 0.2992)
(8.18091 0.104465 0.32671)
(7.41434 0.120526 0.300589)
(6.70063 0.125195 0.254557)
(6.08601 0.121837 0.200497)
(5.56947 0.112614 0.14567)
(5.13826 0.0995122 0.0965774)
(4.78204 0.0842086 0.0569978)
(4.49248 0.0677053 0.0276354)
(4.2614 0.0505548 0.00731687)
(4.08019 0.033285 -0.00586482)
(3.93999 0.016553 -0.0138156)
(3.83219 0.00105374 -0.0181079)
(3.749 -0.0126861 -0.0199244)
(3.68415 -0.0242903 -0.0201028)
(3.63282 -0.0335918 -0.0192508)
(3.59138 -0.040624 -0.0177939)
(3.55724 -0.0455718 -0.0160423)
(3.52845 -0.0487083 -0.014203)
(3.50365 -0.05034 -0.0124162)
(3.48177 -0.050771 -0.0107598)
(3.46206 -0.0502801 -0.00927602)
(3.44394 -0.0491112 -0.00797633)
(3.42698 -0.0474712 -0.00685284)
(3.41088 -0.0455299 -0.00588802)
(3.39542 -0.0434232 -0.0050605)
(3.38046 -0.0412546 -0.00435138)
(3.36591 -0.039102 -0.00374302)
(3.35173 -0.0370198 -0.00322217)
(3.33789 -0.0350434 -0.00277636)
(3.32439 -0.0331907 -0.00239737)
(3.31124 -0.0314682 -0.00207835)
(3.29846 -0.0298739 -0.00181432)
(3.28606 -0.0284005 -0.00159915)
(3.27406 -0.0270374 -0.001426)
(3.26246 -0.0257742 -0.00128788)
(3.25125 -0.024601 -0.0011774)
(3.24043 -0.0235081 -0.00108771)
(3.22996 -0.0224863 -0.00101221)
(3.21985 -0.0215269 -0.000946618)
(3.21006 -0.0206223 -0.000887462)
(3.20058 -0.0197647 -0.000832695)
(3.19141 -0.0189474 -0.000780714)
(3.18251 -0.018164 -0.000731337)
(3.17388 -0.0174104 -0.000684443)
(3.16551 -0.0166827 -0.000639768)
(3.15737 -0.015978 -0.00059739)
(3.14946 -0.0152943 -0.00055767)
(3.14177 -0.0146307 -0.000521589)
(3.13427 -0.0139869 -0.00048853)
(3.12696 -0.0133626 -0.000458504)
(3.11982 -0.0127579 -0.000430364)
(3.11283 -0.012173 -0.000404197)
(3.10597 -0.0116067 -0.000378056)
(3.09923 -0.0110573 -0.000352013)
(3.0926 -0.0105224 -0.000325679)
(3.08607 -0.0100003 -0.000301493)
(3.07964 -0.0094893 -0.000279958)
(3.07331 -0.00898925 -0.000263643)
(3.06708 -0.00850081 -0.00025243)
(3.06093 -0.00802617 -0.000247317)
(3.05486 -0.0075667 -0.000244878)
(3.04885 -0.00712383 -0.000243538)
(3.04288 -0.00669802 -0.000239804)
(3.03696 -0.00628997 -0.000233778)
(3.03105 -0.0058993 -0.000223664)
(3.02517 -0.00552621 -0.000211645)
(3.0193 -0.00517069 -0.000198196)
(3.01344 -0.00483347 -0.000186364)
(3.00759 -0.00451438 -0.00017535)
(3.00174 -0.00421372 -0.000166815)
(2.99589 -0.003931 -0.000159648)
(2.99002 -0.00366594 -0.000155115)
(2.98413 -0.00341706 -0.000150893)
(2.97823 -0.00318349 -0.000147741)
(2.9723 -0.00296372 -0.000144088)
(2.96634 -0.00275684 -0.000141249)
(2.96035 -0.00256114 -0.000137034)
(2.95434 -0.00237593 -0.000132657)
(2.94829 -0.0022004 -0.000127012)
(2.94221 -0.00203468 -0.00012236)
(2.9361 -0.00187841 -0.000117392)
(2.92996 -0.00173229 -0.000114431)
(2.9238 -0.00159655 -0.000112562)
(2.91762 -0.0014717 -0.000113168)
(2.9114 -0.00135697 -0.000112495)
(2.90516 -0.00125219 -0.00011012)
(2.89888 -0.00115645 -0.000103008)
(2.89256 -0.00106901 -9.22483e-005)
(2.8862 -0.000987953 -7.58675e-005)
(2.87981 -0.000912583 -5.7102e-005)
(2.87339 -0.000841258 -3.59098e-005)
(2.86694 -0.000775344 -1.70729e-005)
(2.86049 -0.000707994 5.78766e-006)
(2.85389 -0.00064836 2.40693e-005)
(2.84762 -0.000559032 4.61985e-005)
(2.84005 -0.000496536 0.000109158)
(2.83644 -0.00030547 -0.000696988)
(2.8259 -0.000109425 0.000713257)
(9.59645 0.015697 0.14976)
(8.90132 0.0423737 0.299565)
(8.15987 0.0615934 0.327834)
(7.38041 0.0722094 0.302518)
(6.65491 0.075475 0.257283)
(6.02978 0.0735331 0.203929)
(5.50419 0.068003 0.149478)
(5.06606 0.0598236 0.100342)
(4.70562 0.0496087 0.0604326)
(4.41459 0.0378291 0.0306541)
(4.18455 0.0249303 0.00996714)
(4.00656 0.0114331 -0.00349676)
(3.8713 -0.00202475 -0.0116703)
(3.76959 -0.0147598 -0.0161643)
(3.69323 -0.0261796 -0.0181901)
(3.63536 -0.0358829 -0.0185749)
(3.59066 -0.0436758 -0.0179019)
(3.55523 -0.0495435 -0.0165755)
(3.52627 -0.0536078 -0.0148941)
(3.50185 -0.0560752 -0.0130676)
(3.48061 -0.0571958 -0.0112441)
(3.46162 -0.0572269 -0.00951835)
(3.44422 -0.0564132 -0.0079434)
(3.42794 -0.0549722 -0.00654457)
(3.41247 -0.0530926 -0.00532867)
(3.39759 -0.0509315 -0.00428937)
(3.38318 -0.048616 -0.00341441)
(3.36915 -0.0462452 -0.00268469)
(3.35547 -0.0438932 -0.0020858)
(3.34213 -0.0416132 -0.00159712)
(3.32912 -0.0394379 -0.00120796)
(3.31646 -0.0373864 -0.000899535)
(3.30417 -0.0354645 -0.000666005)
(3.29227 -0.0336731 -0.000491118)
(3.28079 -0.0320048 -0.000370424)
(3.26971 -0.0304521 -0.000287869)
(3.25905 -0.0290046 -0.000239458)
(3.2488 -0.0276549 -0.000210763)
(3.23894 -0.0263928 -0.000198994)
(3.22945 -0.0252106 -0.000192606)
(3.22031 -0.0240984 -0.000191672)
(3.21149 -0.0230498 -0.000188714)
(3.20299 -0.0220561 -0.000185924)
(3.19478 -0.0211115 -0.000178182)
(3.18684 -0.0202088 -0.000169268)
(3.17916 -0.0193446 -0.000155709)
(3.17172 -0.0185133 -0.000141468)
(3.16451 -0.0177133 -0.000123383)
(3.1575 -0.0169404 -0.000106261)
(3.1507 -0.0161947 -8.77304e-005)
(3.14407 -0.0154733 -7.18987e-005)
(3.13762 -0.014777 -5.5325e-005)
(3.13133 -0.0141035 -4.14467e-005)
(3.12517 -0.0134538 -2.65225e-005)
(3.11914 -0.012824 -1.32192e-005)
(3.11321 -0.0122135 2.0851e-006)
(3.10739 -0.0116175 1.5573e-005)
(3.10167 -0.0110358 2.9201e-005)
(3.09604 -0.0104647 3.88776e-005)
(3.0905 -0.00990579 4.65049e-005)
(3.08505 -0.00935777 4.85956e-005)
(3.07968 -0.00882432 4.79484e-005)
(3.07439 -0.00830486 4.37126e-005)
(3.06915 -0.00780233 4.01917e-005)
(3.06397 -0.00731536 3.66354e-005)
(3.05882 -0.00684596 3.59051e-005)
(3.0537 -0.00639199 3.65433e-005)
(3.04861 -0.00595524 3.98971e-005)
(3.04355 -0.0055342 4.31839e-005)
(3.0385 -0.00513115 4.68297e-005)
(3.03347 -0.00474467 4.90561e-005)
(3.02845 -0.00437691 5.09416e-005)
(3.02343 -0.00402629 5.10136e-005)
(3.0184 -0.00369421 5.03917e-005)
(3.01337 -0.00337816 4.86142e-005)
(3.00833 -0.00307902 4.70095e-005)
(3.00327 -0.00279438 4.48856e-005)
(2.99819 -0.00252504 4.32864e-005)
(2.99309 -0.00226838 4.22015e-005)
(2.98796 -0.00202548 4.24487e-005)
(2.98281 -0.00179452 4.30836e-005)
(2.97763 -0.00157731 4.40765e-005)
(2.97242 -0.00137243 4.47728e-005)
(2.96718 -0.00118208 4.5064e-005)
(2.96191 -0.00100523 4.41357e-005)
(2.95661 -0.00084403 4.26409e-005)
(2.95128 -0.000697103 4.17732e-005)
(2.94591 -0.000565994 4.30513e-005)
(2.9405 -0.000448482 4.71475e-005)
(2.93505 -0.000345119 5.47484e-005)
(2.92955 -0.000253283 6.62261e-005)
(2.924 -0.000174316 8.0575e-005)
(2.91842 -0.000106149 9.75881e-005)
(2.91279 -5.24621e-005 0.000113583)
(2.90714 -6.67244e-006 0.000138382)
(2.90136 1.67259e-005 0.000153195)
(2.8958 5.4527e-005 0.000205351)
(2.8891 4.58892e-005 0.000244233)
(2.88585 0.000117529 -0.000444527)
(2.87631 0.000106498 0.000783567)
(9.59522 0.00552794 0.149655)
(8.89493 0.0189692 0.299181)
(8.14733 0.0339151 0.326635)
(7.3629 0.0449302 0.299859)
(6.63605 0.0496014 0.253175)
(6.0134 0.0490659 0.198864)
(5.49237 0.0453716 0.144016)
(5.05917 0.0397811 0.0948764)
(4.70329 0.0328149 0.0551879)
(4.41642 0.0247363 0.0257304)
(4.19036 0.0157834 0.00535537)
(4.01652 0.00623878 -0.00787313)
(3.88571 -0.00350734 -0.0159087)
(3.78867 -0.0129926 -0.0203404)
(3.71701 -0.0217532 -0.0223543)
(3.66362 -0.0294112 -0.0227428)
(3.62302 -0.0357276 -0.0220585)
(3.59113 -0.0406122 -0.0206742)
(3.56509 -0.0440993 -0.0188712)
(3.54294 -0.046315 -0.0168573)
(3.52334 -0.0474399 -0.014784)
(3.50543 -0.0476719 -0.0127619)
(3.48861 -0.0472076 -0.0108622)
(3.4725 -0.0462264 -0.00913311)
(3.45688 -0.0448867 -0.00759744)
(3.44159 -0.0433185 -0.00626156)
(3.42658 -0.0416279 -0.00512333)
(3.41181 -0.0398949 -0.00416704)
(3.3973 -0.03818 -0.00338229)
(3.38305 -0.0365228 -0.00274351)
(3.36912 -0.034948 -0.00224015)
(3.35551 -0.0334664 -0.00184469)
(3.34229 -0.0320812 -0.0015494)
(3.32946 -0.0307886 -0.00132776)
(3.31706 -0.0295824 -0.00117338)
(3.30507 -0.0284535 -0.00106193)
(3.29352 -0.027394 -0.000989483)
(3.28237 -0.0263958 -0.000936247)
(3.27163 -0.0254519 -0.000900837)
(3.26125 -0.0245547 -0.00086834)
(3.25123 -0.0236975 -0.000840926)
(3.24154 -0.0228746 -0.000808929)
(3.23215 -0.0220807 -0.000776868)
(3.22305 -0.021311 -0.000737778)
(3.2142 -0.0205618 -0.000697455)
(3.2056 -0.0198305 -0.000650637)
(3.19721 -0.0191147 -0.00060398)
(3.18902 -0.0184127 -0.000552924)
(3.18102 -0.0177237 -0.000504615)
(3.17318 -0.0170473 -0.000454526)
(3.1655 -0.0163837 -0.000409411)
(3.15795 -0.015733 -0.000364037)
(3.15052 -0.0150955 -0.000324815)
(3.14319 -0.0144711 -0.000285798)
(3.13595 -0.013859 -0.000252324)
(3.12879 -0.0132574 -0.000218203)
(3.12169 -0.0126649 -0.000189378)
(3.11466 -0.0120803 -0.00016087)
(3.10769 -0.0115027 -0.000138843)
(3.10076 -0.0109325 -0.000118372)
(3.0939 -0.010371 -0.000104643)
(3.08707 -0.00982005 -9.2129e-005)
(3.08029 -0.00928119 -8.44382e-005)
(3.07353 -0.00875555 -7.59349e-005)
(3.06681 -0.00824367 -7.01872e-005)
(3.0601 -0.0077458 -6.25131e-005)
(3.05341 -0.00726172 -5.62898e-005)
(3.04674 -0.00679151 -4.77626e-005)
(3.04008 -0.00633543 -4.08627e-005)
(3.03343 -0.00589406 -3.27777e-005)
(3.02681 -0.00546767 -2.68052e-005)
(3.02019 -0.00505667 -2.01507e-005)
(3.01359 -0.00466101 -1.58276e-005)
(3.007 -0.0042805 -1.11431e-005)
(3.00043 -0.00391453 -8.249e-006)
(2.99388 -0.00356265 -4.67565e-006)
(2.98734 -0.00322407 -2.64737e-006)
(2.98082 -0.0028981 2.03505e-007)
(2.97432 -0.00258398 2.44489e-006)
(2.96784 -0.00228153 6.18972e-006)
(2.96139 -0.00199057 9.35987e-006)
(2.95495 -0.0017112 1.32598e-005)
(2.94855 -0.00144364 1.60121e-005)
(2.94217 -0.00118875 1.87066e-005)
(2.93583 -0.000947222 1.94564e-005)
(2.92951 -0.000719635 2.01083e-005)
(2.92323 -0.000506199 2.03812e-005)
(2.91698 -0.000307203 2.22968e-005)
(2.91076 -0.000122232 2.47103e-005)
(2.90456 4.91467e-005 2.89361e-005)
(2.89839 0.000207423 3.43621e-005)
(2.89225 0.000351975 4.15815e-005)
(2.88613 0.000482107 5.07051e-005)
(2.88005 0.00059463 5.85157e-005)
(2.87401 0.00068901 7.8082e-005)
(2.86791 0.000752729 8.12172e-005)
(2.86205 0.00079445 0.000145804)
(2.8552 0.000786317 0.000155297)
(2.85176 0.000701149 -0.000514767)
(2.84214 0.000597217 0.000776685)
(9.60686 -0.0202769 0.15002)
(8.93609 -0.0425089 0.301955)
(8.20551 -0.0473182 0.33429)
(7.42015 -0.0439286 0.310686)
(6.68204 -0.0387692 0.264048)
(6.04561 -0.0341061 0.208173)
(5.5117 -0.0304072 0.151604)
(5.06734 -0.0279594 0.101066)
(4.70227 -0.0270832 0.0604162)
(4.40846 -0.0279439 0.0304577)
(4.17781 -0.0305187 0.00999732)
(4.00145 -0.0345666 -0.00302078)
(3.87 -0.0396739 -0.0107398)
(3.77387 -0.04529 -0.0148926)
(3.70422 -0.0508375 -0.0167556)
(3.65339 -0.0558121 -0.0171393)
(3.61542 -0.0598551 -0.0165856)
(3.58587 -0.0627793 -0.0154366)
(3.56163 -0.064542 -0.0139336)
(3.54062 -0.0652355 -0.0122527)
(3.52151 -0.065029 -0.0105108)
(3.50347 -0.0640999 -0.00880805)
(3.48599 -0.0626135 -0.00720247)
(3.46878 -0.0607241 -0.00574425)
(3.45166 -0.0585699 -0.00445313)
(3.4346 -0.0562672 -0.0033414)
(3.41757 -0.0539104 -0.00240896)
(3.40059 -0.0515712 -0.00164406)
(3.38373 -0.0493016 -0.00103853)
(3.36701 -0.0471336 -0.000567815)
(3.3505 -0.0450837 -0.000222235)
(3.33422 -0.0431572 2.73579e-005)
(3.31822 -0.0413512 0.000188665)
(3.3025 -0.0396588 0.000289708)
(3.28712 -0.0380691 0.000335941)
(3.27203 -0.0365722 0.000352267)
(3.25728 -0.0351573 0.000341756)
(3.24282 -0.0338164 0.000323652)
(3.22866 -0.0325398 0.000297848)
(3.21477 -0.0313204 0.000277601)
(3.20114 -0.0301498 0.000259783)
(3.18774 -0.0290229 0.000252847)
(3.17456 -0.0279325 0.000251644)
(3.16159 -0.026875 0.000261787)
(3.1488 -0.0258453 0.000276984)
(3.13618 -0.0248418 0.00030142)
(3.12372 -0.0238606 0.00032837)
(3.11139 -0.0229012 0.00036158)
(3.09919 -0.0219611 0.000393734)
(3.08711 -0.0210413 0.000428742)
(3.07515 -0.0201405 0.000459633)
(3.06328 -0.0192602 0.000491391)
(3.0515 -0.0183993 0.000517712)
(3.0398 -0.0175596 0.000544316)
(3.02817 -0.0167389 0.000565491)
(3.0166 -0.0159381 0.000587195)
(3.0051 -0.0151551 0.000603522)
(2.99366 -0.014391 0.000619908)
(2.98228 -0.0136444 0.000630761)
(2.97095 -0.0129178 0.000641349)
(2.95968 -0.0122113 0.000646661)
(2.94846 -0.0115284 0.00065196)
(2.93731 -0.0108688 0.00065329)
(2.9262 -0.0102352 0.00065585)
(2.91515 -0.00962659 0.000656089)
(2.90414 -0.00904472 0.000658256)
(2.89319 -0.00848775 0.000658852)
(2.88229 -0.00795729 0.0006612)
(2.87145 -0.00745191 0.000661979)
(2.86066 -0.00697338 0.000664223)
(2.84994 -0.00652006 0.00066532)
(2.83928 -0.0060934 0.000667824)
(2.82869 -0.00569137 0.000669082)
(2.81817 -0.00531487 0.000671037)
(2.80772 -0.00496144 0.000671563)
(2.79735 -0.00463186 0.000672789)
(2.78706 -0.00432345 0.000673131)
(2.77686 -0.00403661 0.000674544)
(2.76676 -0.00376869 0.000675745)
(2.75674 -0.00352061 0.000678213)
(2.74683 -0.00329 0.000680354)