/*--------------------------------*- C++ -*----------------------------------*\
| =========                 |                                                 |
| \\      /  F ield         | OpenFOAM: The Open Source CFD Toolbox           |
|  \\    /   O peration     | Version:  5.x                                   |
|   \\  /    A nd           | Web:      www.OpenFOAM.org                      |
|    \\/     M anipulation  |                                                 |
\*---------------------------------------------------------------------------*/
/*   Windows 32 and 64 bit porting by blueCAPE: http://www.bluecape.com.pt   *\
|  Based on Windows porting (2.0.x v4) by Symscape: http://www.symscape.com   |
\*---------------------------------------------------------------------------*/
FoamFile
{
    version     2.0;
    format      ascii;
    class       surfaceScalarField;
    location    "40";
    object      phi;
}
// * * * * * * * * * * * * * * * * * * * * * * * * * * * * * * * * * * * * * //

dimensions      [0 3 -1 0 0 0 0];

internalField   nonuniform List<scalar> 
27900
(
2.58749e-008
1.82354e-009
1.82353e-009
2.1374e-008
2.25046e-009
2.25045e-009
1.71645e-008
2.10472e-009
2.10471e-009
1.36186e-008
1.77293e-009
1.77295e-009
1.08775e-008
1.37057e-009
1.37059e-009
8.8967e-009
9.90402e-010
9.90397e-010
7.50493e-009
6.95934e-010
6.9589e-010
6.50997e-009
4.97533e-010
4.97479e-010
5.76318e-009
3.73432e-010
3.7339e-010
5.17232e-009
2.95454e-010
2.9543e-010
4.68973e-009
2.41304e-010
2.41293e-010
4.29419e-009
1.97776e-010
1.97773e-010
3.97501e-009
1.59596e-010
1.59598e-010
3.72296e-009
1.2603e-010
1.26034e-010
3.52778e-009
9.75975e-011
9.76011e-011
3.37884e-009
7.44744e-011
7.4477e-011
3.26623e-009
5.63096e-011
5.63126e-011
3.18137e-009
4.2435e-011
4.24416e-011
3.11723e-009
3.20726e-011
3.20866e-011
3.06822e-009
2.44998e-011
2.45239e-011
3.03004e-009
1.9075e-011
1.9109e-011
2.99945e-009
1.52767e-011
1.53174e-011
2.97404e-009
1.26832e-011
1.27255e-011
2.95208e-009
1.09635e-011
1.10019e-011
2.93232e-009
9.86104e-012
9.89115e-012
2.91393e-009
9.18317e-012
9.20255e-012
2.89634e-009
8.78882e-012
8.79691e-012
2.87918e-009
8.57544e-012
8.57328e-012
2.86225e-009
8.47107e-012
8.46095e-012
2.84541e-009
8.42554e-012
8.41047e-012
2.82862e-009
8.40557e-012
8.38891e-012
2.81185e-009
8.3906e-012
8.37541e-012
2.79512e-009
8.36782e-012
8.35641e-012
2.77845e-009
8.33331e-012
8.32698e-012
2.76187e-009
8.28333e-012
8.2826e-012
2.74542e-009
8.21732e-012
8.22209e-012
2.72912e-009
8.13563e-012
8.14512e-012
2.71301e-009
8.04253e-012
8.05541e-012
2.6971e-009
7.93936e-012
7.95398e-012
2.6814e-009
7.82936e-012
7.84413e-012
2.66594e-009
7.71368e-012
7.72721e-012
2.65072e-009
7.59473e-012
7.60596e-012
2.63574e-009
7.47296e-012
7.48116e-012
2.62101e-009
7.3495e-012
7.35437e-012
2.60654e-009
7.22445e-012
7.22605e-012
2.59232e-009
7.0989e-012
7.09756e-012
2.57835e-009
6.97275e-012
6.96906e-012
2.56465e-009
6.84684e-012
6.84147e-012
2.55119e-009
6.72115e-012
6.71478e-012
2.53799e-009
6.5969e-012
6.59005e-012
2.52504e-009
6.47361e-012
6.46674e-012
2.51234e-009
6.35216e-012
6.34562e-012
2.49987e-009
6.23213e-012
6.22611e-012
2.48765e-009
6.11476e-012
6.10927e-012
2.47565e-009
5.99901e-012
5.99397e-012
2.46389e-009
5.88543e-012
5.88081e-012
2.45235e-009
5.77323e-012
5.769e-012
2.44103e-009
5.6638e-012
5.65987e-012
2.42992e-009
5.55619e-012
5.5525e-012
2.41903e-009
5.4513e-012
5.44788e-012
2.40834e-009
5.3485e-012
5.34538e-012
2.39785e-009
5.2492e-012
5.24634e-012
2.38756e-009
5.15205e-012
5.14947e-012
2.37745e-009
5.05754e-012
5.05528e-012
2.36753e-009
4.96461e-012
4.9627e-012
2.35779e-009
4.87458e-012
4.87296e-012
2.34823e-009
4.78628e-012
4.78491e-012
2.33884e-009
4.70054e-012
4.69945e-012
2.32961e-009
4.6164e-012
4.61561e-012
2.32055e-009
4.53517e-012
4.53471e-012
2.31165e-009
4.45545e-012
4.45536e-012
2.30291e-009
4.37796e-012
4.37836e-012
2.29431e-009
4.30161e-012
4.30254e-012
2.28587e-009
4.22788e-012
4.22923e-012
2.27757e-009
4.15533e-012
4.1569e-012
2.26941e-009
4.08485e-012
4.08645e-012
2.26138e-009
4.01534e-012
4.01672e-012
2.2535e-009
3.94832e-012
3.94924e-012
2.24574e-009
3.88221e-012
3.88253e-012
2.23812e-009
3.81781e-012
3.81761e-012
2.23062e-009
3.75388e-012
3.75333e-012
2.22325e-009
3.69215e-012
3.69142e-012
2.216e-009
3.63127e-012
3.6305e-012
2.20887e-009
3.57243e-012
3.57182e-012
2.20185e-009
3.51445e-012
3.51407e-012
2.19495e-009
3.45885e-012
3.45861e-012
2.18815e-009
3.40373e-012
3.40348e-012
2.18146e-009
3.3498e-012
3.34949e-012
2.17488e-009
3.29569e-012
3.29525e-012
2.1684e-009
3.24336e-012
3.24268e-012
2.16203e-009
3.19144e-012
3.19044e-012
2.15575e-009
3.1427e-012
3.14142e-012
2.14957e-009
3.09397e-012
3.09247e-012
2.14346e-009
3.05848e-012
3.05678e-012
2.13746e-009
3.0041e-012
3.00222e-012
2.13141e-009
3.02851e-012
3.02634e-012
2.1258e-009
2.80896e-012
2.80622e-012
2.11944e-009
3.18094e-012
3.17832e-012
2.11664e-009
1.39692e-012
1.39374e-012
3.76504e-012
3.76391e-012
3.23626e-008
6.63424e-010
2.15236e-009
3.03059e-008
1.5162e-009
2.79096e-009
2.78022e-008
1.76663e-009
2.84173e-009
2.50757e-008
1.80679e-009
2.6927e-009
2.23352e-008
1.68538e-009
2.42569e-009
1.9784e-008
1.43821e-009
2.10341e-009
1.75397e-008
1.15431e-009
1.78593e-009
1.56348e-008
8.98614e-010
1.50388e-009
1.40529e-008
6.91162e-010
1.26423e-009
1.27559e-008
5.28561e-010
1.06391e-009
1.16992e-008
4.0131e-010
8.96726e-010
1.08404e-008
3.00104e-010
7.56475e-010
1.01435e-008
2.18085e-010
6.38394e-010
9.57903e-009
1.51331e-010
5.39185e-010
9.1225e-009
9.77996e-011
4.56329e-010
8.7534e-009
5.60442e-011
3.87536e-010
8.45443e-009
2.46453e-011
3.30634e-010
8.2112e-009
2.03191e-012
2.83643e-010
8.01194e-009
-1.34789e-011
2.44818e-010
7.84723e-009
-2.34374e-011
2.12667e-010
7.7095e-009
-2.9111e-011
1.85943e-010
7.59271e-009
-3.15289e-011
1.63619e-010
7.49212e-009
-3.15493e-011
1.44851e-010
7.404e-009
-2.9876e-011
1.28971e-010
7.3255e-009
-2.70779e-011
1.15448e-010
7.25442e-009
-2.3601e-011
1.03865e-010
7.1891e-009
-1.97837e-011
9.38953e-011
7.12827e-009
-1.58777e-011
8.5277e-011
7.07099e-009
-1.206e-011
7.77984e-011
7.01657e-009
-8.45095e-012
7.12844e-011
6.96449e-009
-5.12424e-012
6.55917e-011
6.91438e-009
-2.11777e-012
6.06005e-011
6.86595e-009
5.58351e-013
5.62121e-011
6.81901e-009
2.90529e-012
5.23424e-011
6.77343e-009
4.92996e-012
4.89163e-011
6.72909e-009
6.65592e-012
4.58735e-011
6.68593e-009
8.11199e-012
4.31613e-011
6.64388e-009
9.33056e-012
4.07378e-011
6.60289e-009
1.03403e-011
3.85629e-011
6.56292e-009
1.11701e-011
3.66055e-011
6.52393e-009
1.18443e-011
3.48365e-011
6.48588e-009
1.2386e-011
3.32334e-011
6.44873e-009
1.28139e-011
3.17737e-011
6.41246e-009
1.31452e-011
3.04401e-011
6.37704e-009
1.33939e-011
2.92157e-011
6.34245e-009
1.35728e-011
2.80882e-011
6.30865e-009
1.36924e-011
2.70449e-011
6.27563e-009
1.37621e-011
2.60769e-011
6.24336e-009
1.37896e-011
2.51748e-011
6.21181e-009
1.37822e-011
2.43326e-011
6.18098e-009
1.37453e-011
2.35431e-011
6.15083e-009
1.36839e-011
2.28018e-011
6.12135e-009
1.36018e-011
2.2103e-011
6.09251e-009
1.35033e-011
2.14442e-011
6.06429e-009
1.33906e-011
2.08201e-011
6.03668e-009
1.32663e-011
2.02282e-011
6.00966e-009
1.31321e-011
1.96643e-011
5.9832e-009
1.2991e-011
1.9128e-011
5.9573e-009
1.28442e-011
1.86154e-011
5.93194e-009
1.26935e-011
1.81264e-011
5.9071e-009
1.254e-011
1.7658e-011
5.88276e-009
1.23856e-011
1.72111e-011
5.85891e-009
1.223e-011
1.67825e-011
5.83553e-009
1.20739e-011
1.63722e-011
5.81261e-009
1.1917e-011
1.59772e-011
5.79014e-009
1.17606e-011
1.55988e-011
5.7681e-009
1.16046e-011
1.52341e-011
5.74648e-009
1.14497e-011
1.4884e-011
5.72527e-009
1.12956e-011
1.4546e-011
5.70445e-009
1.11435e-011
1.42217e-011
5.68402e-009
1.09926e-011
1.39083e-011
5.66397e-009
1.08434e-011
1.36067e-011
5.64427e-009
1.06951e-011
1.33145e-011
5.62494e-009
1.05489e-011
1.30334e-011
5.60594e-009
1.0404e-011
1.27609e-011
5.58729e-009
1.0261e-011
1.24977e-011
5.56896e-009
1.01194e-011
1.22417e-011
5.55095e-009
9.98039e-012
1.19947e-011
5.53325e-009
9.84307e-012
1.17541e-011
5.51585e-009
9.70785e-012
1.15211e-011
5.49876e-009
9.57408e-012
1.12935e-011
5.48195e-009
9.44287e-012
1.10735e-011
5.46543e-009
9.31357e-012
1.08593e-011
5.44918e-009
9.1866e-012
1.06524e-011
5.43321e-009
9.0611e-012
1.04513e-011
5.41749e-009
8.93764e-012
1.0258e-011
5.40203e-009
8.81498e-012
1.00696e-011
5.38682e-009
8.69323e-012
9.88678e-012
5.37185e-009
8.57178e-012
9.70727e-012
5.35712e-009
8.4523e-012
9.53313e-012
5.34263e-009
8.33534e-012
9.36214e-012
5.32836e-009
8.22387e-012
9.19758e-012
5.31431e-009
8.11916e-012
9.03452e-012
5.30046e-009
8.03147e-012
8.89178e-012
5.28681e-009
7.94437e-012
8.72269e-012
5.27324e-009
7.92596e-012
8.67794e-012
5.26009e-009
7.70515e-012
8.26366e-012
5.24644e-009
7.98991e-012
8.83039e-012
5.23622e-009
6.05524e-012
5.55541e-012
8.25201e-012
1.00849e-011
3.55148e-008
3.83468e-010
2.45049e-009
3.29268e-008
1.03795e-009
3.06619e-009
3.04073e-008
1.27893e-009
3.0072e-009
2.80404e-008
1.35231e-009
2.82143e-009
2.58028e-008
1.34037e-009
2.58263e-009
2.37003e-008
1.23819e-009
2.30254e-009
2.17647e-008
1.07708e-009
2.01285e-009
2.00257e-008
9.00357e-010
1.73724e-009
1.85002e-008
7.30732e-010
1.48598e-009
1.71902e-008
5.74908e-010
1.26361e-009
1.60852e-008
4.34747e-010
1.07168e-009
1.51653e-008
3.10939e-010
9.09092e-010
1.44067e-008
2.03508e-010
7.73158e-010
1.37849e-008
1.12326e-010
6.60888e-010
1.32759e-008
3.73909e-011
5.69341e-010
1.28582e-008
-2.17405e-011
4.95511e-010
1.25131e-008
-6.65575e-011
4.36239e-010
1.22257e-008
-9.9138e-011
3.88517e-010
1.19839e-008
-1.21466e-010
3.49835e-010
1.17777e-008
-1.354e-010
3.18161e-010
1.15993e-008
-1.42633e-010
2.91885e-010
1.14428e-008
-1.44655e-010
2.69753e-010
1.13032e-008
-1.42749e-010
2.50786e-010
1.11771e-008
-1.37999e-010
2.34247e-010
1.10618e-008
-1.313e-010
2.19584e-010
1.09552e-008
-1.23372e-010
2.06407e-010
1.08558e-008
-1.14777e-010
1.94432e-010
1.07624e-008
-1.05939e-010
1.83463e-010
1.06741e-008
-9.71681e-011
1.73355e-010
1.05903e-008
-8.86816e-011
1.64003e-010
1.05105e-008
-8.06211e-011
1.55325e-010
1.04341e-008
-7.30713e-011
1.47256e-010
1.0361e-008
-6.60745e-011
1.39739e-010
1.02908e-008
-5.964e-011
1.32732e-010
1.02232e-008
-5.37574e-011
1.26193e-010
1.01582e-008
-4.84021e-011
1.20089e-010
1.00954e-008
-4.35397e-011
1.14386e-010
1.00348e-008
-3.91313e-011
1.09057e-010
9.97616e-009
-3.51369e-011
1.04072e-010
9.91942e-009
-3.15158e-011
9.94094e-011
9.86444e-009
-2.82303e-011
9.5041e-011
9.8111e-009
-2.52457e-011
9.09481e-011
9.75932e-009
-2.25307e-011
8.71059e-011
9.709e-009
-2.00576e-011
8.34974e-011
9.66007e-009
-1.78015e-011
8.01017e-011
9.61245e-009
-1.57406e-011
7.69056e-011
9.56607e-009
-1.38553e-011
7.38914e-011
9.52089e-009
-1.21283e-011
7.10476e-011
9.47684e-009
-1.05441e-011
6.83593e-011
9.43387e-009
-9.08903e-012
6.58187e-011
9.39193e-009
-7.7511e-012
6.34124e-011
9.35098e-009
-6.51962e-012
6.11336e-011
9.31099e-009
-5.38511e-012
5.89709e-011
9.2719e-009
-4.33879e-012
5.69197e-011
9.23369e-009
-3.37335e-012
5.49691e-011
9.19631e-009
-2.48204e-012
5.31144e-011
9.15976e-009
-1.65854e-012
5.13467e-011
9.12398e-009
-8.9668e-013
4.9664e-011
9.08896e-009
-1.90742e-013
4.80586e-011
9.05466e-009
4.63961e-013
4.6529e-011
9.02107e-009
1.07075e-012
4.50681e-011
8.98815e-009
1.63287e-012
4.36758e-011
8.95589e-009
2.15329e-012
4.23449e-011
8.92427e-009
2.63482e-012
4.10739e-011
8.89326e-009
3.08029e-012
3.98563e-011
8.86284e-009
3.49252e-012
3.86927e-011
8.83301e-009
3.87383e-012
3.75771e-011
8.80374e-009
4.22638e-012
3.65099e-011
8.77501e-009
4.5521e-012
3.54858e-011
8.74681e-009
4.85289e-012
3.45066e-011
8.71912e-009
5.13e-012
3.35665e-011
8.69192e-009
5.38467e-012
3.26661e-011
8.66522e-009
5.61812e-012
3.18e-011
8.63898e-009
5.83195e-012
3.09701e-011
8.6132e-009
6.02726e-012
3.01714e-011
8.58787e-009
6.20529e-012
2.94048e-011
8.56297e-009
6.36722e-012
2.86654e-011
8.5385e-009
6.51445e-012
2.79558e-011
8.51444e-009
6.64777e-012
2.72712e-011
8.49078e-009
6.768e-012
2.66126e-011
8.46752e-009
6.87596e-012
2.59757e-011
8.44465e-009
6.97277e-012
2.53634e-011
8.42215e-009
7.05897e-012
2.47719e-011
8.40002e-009
7.13498e-012
2.42033e-011
8.37824e-009
7.20095e-012
2.36539e-011
8.35682e-009
7.25716e-012
2.31264e-011
8.33573e-009
7.3035e-012
2.26164e-011
8.31498e-009
7.34025e-012
2.21245e-011
8.29455e-009
7.36825e-012
2.16464e-011
8.27444e-009
7.38934e-012
2.11849e-011
8.25465e-009
7.40603e-012
2.07365e-011
8.23515e-009
7.42173e-012
2.03055e-011
8.21595e-009
7.4425e-012
1.98868e-011
8.19702e-009
7.47399e-012
1.95016e-011
8.17835e-009
7.52575e-012
1.91018e-011
8.15982e-009
7.60935e-012
1.88579e-011
8.1417e-009
7.66816e-012
1.81561e-011
8.12306e-009
7.90077e-012
1.87214e-011
8.10826e-009
7.32502e-012
1.35262e-011
8.51254e-012
2.10866e-011
3.9918e-008
2.6358e-010
2.77988e-009
3.67265e-008
7.32715e-010
3.49666e-009
3.36031e-008
9.70567e-010
3.43178e-009
3.0692e-008
1.04948e-009
3.21405e-009
2.80567e-008
1.04897e-009
2.92672e-009
2.57287e-008
9.85946e-010
2.58037e-009
2.37101e-008
8.76714e-010
2.21887e-009
2.1984e-008
7.47552e-010
1.87885e-009
2.05242e-008
6.15373e-010
1.57511e-009
1.9302e-008
4.85779e-010
1.31137e-009
1.82884e-008
3.61007e-010
1.08744e-009
1.74552e-008
2.43612e-010
9.00599e-010
1.67759e-008
1.36263e-010
7.46634e-010
1.62257e-008
4.12987e-011
6.21284e-010
1.57818e-008
-3.94651e-011
5.20689e-010
1.54241e-008
-1.05286e-010
4.41152e-010
1.51347e-008
-1.56331e-010
3.79075e-010
1.48981e-008
-1.93663e-010
3.31055e-010
1.47015e-008
-2.19002e-010
2.94032e-010
1.4535e-008
-2.34309e-010
2.65441e-010
1.43906e-008
-2.41503e-010
2.43236e-010
1.42626e-008
-2.42354e-010
2.25813e-010
1.41465e-008
-2.38418e-010
2.11911e-010
1.4039e-008
-2.31027e-010
2.00564e-010
1.39381e-008
-2.21286e-010
1.91036e-010
1.38421e-008
-2.10083e-010
1.82799e-010
1.375e-008
-1.98112e-010
1.75474e-010
1.36612e-008
-1.85896e-010
1.68808e-010
1.35752e-008
-1.73816e-010
1.62636e-010
1.34917e-008
-1.62133e-010
1.5685e-010
1.34107e-008
-1.51017e-010
1.5138e-010
1.33319e-008
-1.40567e-010
1.46179e-010
1.32554e-008
-1.30828e-010
1.41218e-010
1.3181e-008
-1.21812e-010
1.36478e-010
1.31087e-008
-1.13502e-010
1.31946e-010
1.30385e-008
-1.05864e-010
1.27612e-010
1.29703e-008
-9.88555e-011
1.23467e-010
1.29041e-008
-9.24248e-011
1.19501e-010
1.28398e-008
-8.65186e-011
1.15707e-010
1.27773e-008
-8.10924e-011
1.12087e-010
1.27165e-008
-7.61014e-011
1.08635e-010
1.26574e-008
-7.15043e-011
1.05345e-010
1.25999e-008
-6.72621e-011
1.02207e-010
1.2544e-008
-6.334e-011
9.92103e-011
1.24895e-008
-5.9706e-011
9.63461e-011
1.24365e-008
-5.63321e-011
9.36081e-011
1.23848e-008
-5.31929e-011
9.09864e-011
1.23345e-008
-5.02663e-011
8.84749e-011
1.22854e-008
-4.75319e-011
8.60658e-011
1.22375e-008
-4.49728e-011
8.37549e-011
1.21907e-008
-4.2573e-011
8.15347e-011
1.21451e-008
-4.03194e-011
7.94007e-011
1.21006e-008
-3.81992e-011
7.73467e-011
1.2057e-008
-3.62023e-011
7.53697e-011
1.20145e-008
-3.43182e-011
7.3463e-011
1.19729e-008
-3.2539e-011
7.16231e-011
1.19323e-008
-3.08558e-011
6.98448e-011
1.18925e-008
-2.92618e-011
6.81274e-011
1.18536e-008
-2.77499e-011
6.64661e-011
1.18155e-008
-2.63152e-011
6.486e-011
1.17782e-008
-2.49516e-011
6.33056e-011
1.17417e-008
-2.36552e-011
6.18034e-011
1.17059e-008
-2.24214e-011
6.03482e-011
1.16709e-008
-2.12475e-011
5.89386e-011
1.16365e-008
-2.0129e-011
5.75705e-011
1.16029e-008
-1.90633e-011
5.62445e-011
1.15699e-008
-1.80464e-011
5.49569e-011
1.15375e-008
-1.70765e-011
5.37082e-011
1.15057e-008
-1.61505e-011
5.24961e-011
1.14745e-008
-1.52673e-011
5.13217e-011
1.14439e-008
-1.44244e-011
5.01817e-011
1.14138e-008
-1.36209e-011
4.90757e-011
1.13843e-008
-1.28542e-011
4.80007e-011
1.13553e-008
-1.21234e-011
4.69579e-011
1.13269e-008
-1.1426e-011
4.59446e-011
1.12989e-008
-1.07612e-011
4.49605e-011
1.12714e-008
-1.01264e-011
4.4003e-011
1.12444e-008
-9.52105e-012
4.30735e-011
1.12178e-008
-8.94269e-012
4.21691e-011
1.11917e-008
-8.39103e-012
4.12896e-011
1.1166e-008
-7.86371e-012
4.04328e-011
1.11408e-008
-7.36061e-012
3.96004e-011
1.11159e-008
-6.87989e-012
3.87907e-011
1.10915e-008
-6.42201e-012
3.80042e-011
1.10675e-008
-5.98557e-012
3.72392e-011
1.10438e-008
-5.5714e-012
3.6497e-011
1.10206e-008
-5.17817e-012
3.57748e-011
1.09977e-008
-4.80625e-012
3.50717e-011
1.09751e-008
-4.45322e-012
3.43853e-011
1.09529e-008
-4.11827e-012
3.37174e-011
1.09311e-008
-3.79715e-012
3.30676e-011
1.09095e-008
-3.48769e-012
3.24396e-011
1.08883e-008
-3.1799e-012
3.18331e-011
1.08674e-008
-2.87385e-012
3.12684e-011
1.08468e-008
-2.53413e-012
3.07108e-011
1.08263e-008
-2.19983e-012
3.03187e-011
1.08061e-008
-1.69742e-012
2.95015e-011
1.07854e-008
-1.30378e-012
2.99862e-011
1.07688e-008
-3.406e-013
2.41996e-011
6.66721e-013
3.31149e-011
4.504e-008
1.74926e-010
3.15459e-009
4.1287e-008
4.97001e-010
3.98868e-009
3.763e-008
7.02982e-010
3.92458e-009
3.4218e-008
7.92832e-010
3.66872e-009
3.11313e-008
8.09194e-010
3.32661e-009
2.84293e-008
7.7503e-010
2.91304e-009
2.61258e-008
7.02251e-010
2.4778e-009
2.42006e-008
6.06649e-010
2.06601e-009
2.26162e-008
5.01775e-010
1.69797e-009
2.13283e-008
3.94316e-010
1.37935e-009
2.02917e-008
2.8736e-010
1.11046e-009
1.94634e-008
1.83687e-010
8.88371e-010
1.88055e-008
8.62942e-011
7.07956e-010
1.82854e-008
-2.07406e-012
5.63524e-010
1.78752e-008
-7.9172e-011
4.49866e-010
1.7551e-008
-1.43446e-010
3.62143e-010
1.7293e-008
-1.94332e-010
2.95802e-010
1.7085e-008
-2.32296e-010
2.46507e-010
1.6914e-008
-2.58563e-010
2.10361e-010
1.67703e-008
-2.7477e-010
1.8413e-010
1.66462e-008
-2.82679e-010
1.65276e-010
1.65362e-008
-2.84e-010
1.5183e-010
1.64359e-008
-2.80292e-010
1.42285e-010
1.63425e-008
-2.72914e-010
1.35467e-010
1.6254e-008
-2.63006e-010
1.30498e-010
1.61688e-008
-2.515e-010
1.26731e-010
1.60862e-008
-2.39128e-010
1.23707e-010
1.60057e-008
-2.26444e-010
1.21111e-010
1.5927e-008
-2.13851e-010
1.18736e-010
1.585e-008
-2.0163e-010
1.16475e-010
1.57746e-008
-1.89967e-010
1.14258e-010
1.57008e-008
-1.78968e-010
1.12052e-010
1.56287e-008
-1.68685e-010
1.09839e-010
1.55583e-008
-1.59129e-010
1.07616e-010
1.54896e-008
-1.50286e-010
1.05383e-010
1.54226e-008
-1.4212e-010
1.03148e-010
1.53574e-008
-1.34588e-010
1.0092e-010
1.52938e-008
-1.27641e-010
9.87154e-011
1.5232e-008
-1.21228e-010
9.65449e-011
1.51718e-008
-1.153e-010
9.44052e-011
1.51132e-008
-1.09809e-010
9.23026e-011
1.50562e-008
-1.04711e-010
9.02433e-011
1.50007e-008
-9.99675e-011
8.8233e-011
1.49466e-008
-9.55424e-011
8.6274e-011
1.48939e-008
-9.1405e-011
8.43692e-011
1.48426e-008
-8.75276e-011
8.25201e-011
1.47926e-008
-8.38861e-011
8.07269e-011
1.47438e-008
-8.04586e-011
7.89892e-011
1.46961e-008
-7.72267e-011
7.73065e-011
1.46496e-008
-7.41734e-011
7.56782e-011
1.46042e-008
-7.12848e-011
7.41025e-011
1.45598e-008
-6.85473e-011
7.25775e-011
1.45165e-008
-6.595e-011
7.11013e-011
1.4474e-008
-6.34821e-011
6.9672e-011
1.44325e-008
-6.1135e-011
6.8287e-011
1.43919e-008
-5.88995e-011
6.69434e-011
1.43522e-008
-5.67685e-011
6.56399e-011
1.43133e-008
-5.47343e-011
6.43755e-011
1.42752e-008
-5.27912e-011
6.31489e-011
1.42378e-008
-5.0933e-011
6.1958e-011
1.42012e-008
-4.91553e-011
6.08021e-011
1.41654e-008
-4.74529e-011
5.96801e-011
1.41302e-008
-4.58224e-011
5.85895e-011
1.40957e-008
-4.42593e-011
5.75277e-011
1.40618e-008
-4.27605e-011
5.64937e-011
1.40286e-008
-4.13222e-011
5.54873e-011
1.3996e-008
-3.99419e-011
5.45081e-011
1.3964e-008
-3.86162e-011
5.35544e-011
1.39326e-008
-3.73431e-011
5.26255e-011
1.39018e-008
-3.61196e-011
5.17211e-011
1.38715e-008
-3.49446e-011
5.08395e-011
1.38417e-008
-3.38152e-011
4.99794e-011
1.38125e-008
-3.273e-011
4.91397e-011
1.37837e-008
-3.16866e-011
4.83205e-011
1.37555e-008
-3.06838e-011
4.75207e-011
1.37277e-008
-2.9719e-011
4.67391e-011
1.37004e-008
-2.87909e-011
4.59751e-011
1.36736e-008
-2.78972e-011
4.52287e-011
1.36472e-008
-2.70372e-011
4.4499e-011
1.36213e-008
-2.62086e-011
4.37848e-011
1.35958e-008
-2.54105e-011
4.30857e-011
1.35706e-008
-2.46413e-011
4.24025e-011
1.3546e-008
-2.39008e-011
4.17347e-011
1.35217e-008
-2.31878e-011
4.10821e-011
1.34978e-008
-2.25027e-011
4.04441e-011
1.34742e-008
-2.18445e-011
3.9821e-011
1.34511e-008
-2.12139e-011
3.92114e-011
1.34283e-008
-2.06094e-011
3.8614e-011
1.34058e-008
-2.00305e-011
3.80283e-011
1.33837e-008
-1.94752e-011
3.74561e-011
1.3362e-008
-1.89419e-011
3.68995e-011
1.33406e-008
-1.84275e-011
3.63629e-011
1.33195e-008
-1.79251e-011
3.58528e-011
1.32987e-008
-1.74347e-011
3.53861e-011
1.32781e-008
-1.69182e-011
3.49634e-011
1.32576e-008
-1.64193e-011
3.46855e-011
1.32374e-008
-1.57012e-011
3.42227e-011
1.32165e-008
-1.51315e-011
3.47251e-011
1.31993e-008
-1.3534e-011
3.03563e-011
-1.19119e-011
3.86197e-011
5.08424e-008
1.08585e-010
3.57555e-009
4.64922e-008
3.14721e-010
4.53239e-009
4.22643e-008
4.65079e-010
4.46586e-009
3.83385e-008
5.46993e-010
4.17179e-009
3.47957e-008
5.73076e-010
3.77898e-009
3.17059e-008
5.59488e-010
3.30538e-009
2.90888e-008
5.1631e-010
2.80291e-009
2.69208e-008
4.52428e-010
2.32203e-009
2.51574e-008
3.76383e-010
1.8887e-009
2.37455e-008
2.94099e-010
1.51226e-009
2.26292e-008
2.09174e-010
1.19469e-009
2.17551e-008
1.24561e-010
9.33495e-010
2.10751e-008
4.3325e-011
7.23052e-010
2.05482e-008
-3.16659e-011
5.56533e-010
2.01397e-008
-9.81584e-011
4.27353e-010
1.98213e-008
-1.54462e-010
3.29191e-010
1.95702e-008
-1.9973e-010
2.56245e-010
1.93686e-008
-2.33966e-010
2.03073e-010
1.92028e-008
-2.57899e-010
1.64895e-010
1.90629e-008
-2.72741e-010
1.37829e-010
1.89413e-008
-2.79931e-010
1.18844e-010
1.88327e-008
-2.80944e-010
1.05681e-010
1.87332e-008
-2.77168e-010
9.66147e-011
1.86401e-008
-2.69846e-010
9.0385e-011
1.85513e-008
-2.60052e-010
8.60646e-011
1.84657e-008
-2.48682e-010
8.29683e-011
1.83826e-008
-2.3645e-010
8.06225e-011
1.83014e-008
-2.2391e-010
7.87043e-011
1.8222e-008
-2.11466e-010
7.70191e-011
1.81443e-008
-1.99399e-010
7.54295e-011
1.80683e-008
-1.87894e-010
7.38775e-011
1.79939e-008
-1.77058e-010
7.23266e-011
1.79212e-008
-1.66944e-010
7.07715e-011
1.78503e-008
-1.57564e-010
6.92088e-011
1.77811e-008
-1.489e-010
6.76439e-011
1.77137e-008
-1.40921e-010
6.60842e-011
1.76481e-008
-1.3358e-010
6.45381e-011
1.75842e-008
-1.26829e-010
6.30175e-011
1.7522e-008
-1.20616e-010
6.15269e-011
1.74615e-008
-1.14892e-010
6.00742e-011
1.74027e-008
-1.09608e-010
5.86641e-011
1.73454e-008
-1.04719e-010
5.73039e-011
1.72897e-008
-1.00186e-010
5.5995e-011
1.72354e-008
-9.59721e-011
5.47385e-011
1.71825e-008
-9.20441e-011
5.35331e-011
1.7131e-008
-8.83729e-011
5.2378e-011
1.70808e-008
-8.49332e-011
5.12719e-011
1.70318e-008
-8.17025e-011
5.02129e-011
1.6984e-008
-7.86612e-011
4.91995e-011
1.69374e-008
-7.57925e-011
4.82296e-011
1.68919e-008
-7.30812e-011
4.73008e-011
1.68474e-008
-7.05144e-011
4.64104e-011
1.68039e-008
-6.80802e-011
4.55558e-011
1.67614e-008
-6.57687e-011
4.47348e-011
1.67199e-008
-6.35706e-011
4.39442e-011
1.66793e-008
-6.14777e-011
4.3182e-011
1.66395e-008
-5.94822e-011
4.24462e-011
1.66006e-008
-5.75778e-011
4.17366e-011
1.65625e-008
-5.57582e-011
4.10507e-011
1.65252e-008
-5.40183e-011
4.03879e-011
1.64887e-008
-5.23532e-011
3.97461e-011
1.64529e-008
-5.0759e-011
3.91257e-011
1.64178e-008
-4.92315e-011
3.85235e-011
1.63833e-008
-4.77675e-011
3.79388e-011
1.63496e-008
-4.63632e-011
3.73698e-011
1.63165e-008
-4.5016e-011
3.68177e-011
1.6284e-008
-4.37228e-011
3.6281e-011
1.62522e-008
-4.24811e-011
3.57594e-011
1.62209e-008
-4.12883e-011
3.52518e-011
1.61902e-008
-4.01426e-011
3.47587e-011
1.616e-008
-3.90415e-011
3.42781e-011
1.61304e-008
-3.79835e-011
3.38094e-011
1.61013e-008
-3.6966e-011
3.33514e-011
1.60727e-008
-3.59877e-011
3.29048e-011
1.60447e-008
-3.50464e-011
3.24683e-011
1.60171e-008
-3.41407e-011
3.20417e-011
1.59899e-008
-3.32685e-011
3.1624e-011
1.59633e-008
-3.24285e-011
3.1216e-011
1.59371e-008
-3.1619e-011
3.08163e-011
1.59113e-008
-3.08389e-011
3.04246e-011
1.5886e-008
-3.00865e-011
3.00403e-011
1.5861e-008
-2.93612e-011
2.96646e-011
1.58365e-008
-2.86622e-011
2.92969e-011
1.58124e-008
-2.79895e-011
2.89374e-011
1.57887e-008
-2.73424e-011
2.85852e-011
1.57653e-008
-2.67217e-011
2.82411e-011
1.57424e-008
-2.6127e-011
2.7904e-011
1.57198e-008
-2.55585e-011
2.75734e-011
1.56975e-008
-2.50156e-011
2.72494e-011
1.56756e-008
-2.44987e-011
2.69346e-011
1.5654e-008
-2.4007e-011
2.66329e-011
1.56328e-008
-2.3541e-011
2.63497e-011
1.56119e-008
-2.30981e-011
2.60983e-011
1.55912e-008
-2.26797e-011
2.58919e-011
1.55708e-008
-2.22695e-011
2.57779e-011
1.55505e-008
-2.18792e-011
2.57796e-011
1.55303e-008
-2.14051e-011
2.59368e-011
1.55095e-008
-2.09652e-011
2.65789e-011
1.54917e-008
-2.0145e-011
2.44585e-011
-1.91987e-011
3.14429e-011
5.7412e-008
5.66297e-011
4.04806e-009
5.24314e-008
1.54234e-010
5.14103e-009
4.75774e-008
2.40148e-010
5.079e-009
4.30677e-008
2.99165e-010
4.75765e-009
3.89955e-008
3.23659e-010
4.32176e-009
3.54457e-008
3.20109e-010
3.78913e-009
3.24498e-008
2.96308e-010
3.21572e-009
2.9985e-008
2.57109e-010
2.65995e-009
2.7999e-008
2.06639e-010
2.15573e-009
2.64269e-008
1.48831e-010
1.71746e-009
2.52003e-008
8.68804e-011
1.3491e-009
2.42537e-008
2.3353e-011
1.04807e-009
2.35288e-008
-3.9245e-011
8.07599e-010
2.29762e-008
-9.82903e-011
6.19239e-010
2.25546e-008
-1.51418e-010
4.7471e-010
2.22304e-008
-1.96874e-010
3.66364e-010
2.19769e-008
-2.3367e-010
2.8711e-010
2.17738e-008
-2.61562e-010
2.30418e-010
2.16061e-008
-2.80939e-010
1.90588e-010
2.14629e-008
-2.92633e-010
1.62988e-010
2.13368e-008
-2.97743e-010
1.44059e-010
2.12223e-008
-2.97459e-010
1.31204e-010
2.11158e-008
-2.92941e-010
1.22545e-010
2.10148e-008
-2.85254e-010
1.16698e-010
2.09177e-008
-2.75328e-010
1.12646e-010
2.08236e-008
-2.63949e-010
1.0964e-010
2.07319e-008
-2.5176e-010
1.07191e-010
2.06423e-008
-2.39264e-010
1.04965e-010
2.05549e-008
-2.26834e-010
1.02783e-010
2.04696e-008
-2.14731e-010
1.0054e-010
2.03865e-008
-2.03127e-010
9.81969e-011
2.03056e-008
-1.92128e-010
9.57564e-011
2.02271e-008
-1.81786e-010
9.32263e-011
2.01508e-008
-1.72118e-010
9.06379e-011
2.00769e-008
-1.63115e-010
8.80068e-011
2.00052e-008
-1.54751e-010
8.53655e-011
1.99358e-008
-1.46989e-010
8.27316e-011
1.98686e-008
-1.39789e-010
8.01307e-011
1.98035e-008
-1.33109e-010
7.75788e-011
1.97404e-008
-1.26906e-010
7.509e-011
1.96793e-008
-1.21139e-010
7.26787e-011
1.962e-008
-1.15768e-010
7.0351e-011
1.95625e-008
-1.10759e-010
6.81165e-011
1.95067e-008
-1.06078e-010
6.59736e-011
1.94524e-008
-1.01696e-010
6.3928e-011
1.93997e-008
-9.75853e-011
6.19766e-011
1.93484e-008
-9.37229e-011
6.01194e-011
1.92984e-008
-9.00868e-011
5.83515e-011
1.92497e-008
-8.66579e-011
5.66697e-011
1.92022e-008
-8.34192e-011
5.50704e-011
1.91559e-008
-8.03557e-011
5.35481e-011
1.91107e-008
-7.74541e-011
5.21001e-011
1.90666e-008
-7.47022e-011
5.07201e-011
1.90235e-008
-7.20896e-011
4.94061e-011
1.89813e-008
-6.96067e-011
4.81514e-011
1.89401e-008
-6.72448e-011
4.69538e-011
1.88998e-008
-6.49956e-011
4.58087e-011
1.88603e-008
-6.28523e-011
4.47153e-011
1.88217e-008
-6.08084e-011
4.3669e-011
1.87839e-008
-5.88582e-011
4.26683e-011
1.87468e-008
-5.69963e-011
4.17098e-011
1.87105e-008
-5.52181e-011
4.07922e-011
1.86749e-008
-5.35192e-011
3.9912e-011
1.864e-008
-5.18957e-011
3.90674e-011
1.86057e-008
-5.03436e-011
3.82563e-011
1.85721e-008
-4.88595e-011
3.74784e-011
1.85391e-008
-4.74402e-011
3.67313e-011
1.85067e-008
-4.60825e-011
3.60141e-011
1.84749e-008
-4.47834e-011
3.53246e-011
1.84437e-008
-4.35404e-011
3.46624e-011
1.8413e-008
-4.23506e-011
3.40246e-011
1.83829e-008
-4.12117e-011
3.34108e-011
1.83533e-008
-4.01208e-011
3.28185e-011
1.83241e-008
-3.9076e-011
3.22485e-011
1.82955e-008
-3.80748e-011
3.1698e-011
1.82673e-008
-3.71153e-011
3.11674e-011
1.82396e-008
-3.61949e-011
3.0654e-011
1.82124e-008
-3.53123e-011
3.0159e-011
1.81856e-008
-3.44652e-011
2.96796e-011
1.81592e-008
-3.36523e-011
2.92163e-011
1.81332e-008
-3.28715e-011
2.87667e-011
1.81077e-008
-3.21221e-011
2.83327e-011
1.80825e-008
-3.1403e-011
2.79121e-011
1.80578e-008
-3.0714e-011
2.75059e-011
1.80334e-008
-3.00544e-011
2.71119e-011
1.80094e-008
-2.94248e-011
2.67313e-011
1.79858e-008
-2.88248e-011
2.63616e-011
1.79625e-008
-2.82551e-011
2.6004e-011
1.79395e-008
-2.77162e-011
2.56571e-011
1.79169e-008
-2.72096e-011
2.53254e-011
1.78946e-008
-2.67375e-011
2.50115e-011
1.78727e-008
-2.6303e-011
2.47235e-011
1.7851e-008
-2.59124e-011
2.44764e-011
1.78296e-008
-2.55675e-011
2.42844e-011
1.78085e-008
-2.52942e-011
2.42214e-011
1.77874e-008
-2.50541e-011
2.42752e-011
1.77663e-008
-2.49998e-011
2.46956e-011
1.77448e-008
-2.47767e-011
2.53686e-011
1.77256e-008
-2.52665e-011
2.43119e-011
-2.44112e-011
3.05989e-011
6.48392e-008
1.91461e-011
4.57906e-009
5.91747e-008
4.42033e-012
5.81429e-009
5.36441e-008
3.27806e-011
5.73798e-009
4.85161e-008
6.36426e-011
5.36361e-009
4.39011e-008
8.06263e-011
4.85819e-009
3.98911e-008
8.64968e-011
4.24355e-009
3.65203e-008
8.49082e-011
3.58207e-009
3.37619e-008
7.56765e-011
2.93968e-009
3.15538e-008
5.8066e-011
2.35664e-009
2.98188e-008
3.25464e-011
1.85148e-009
2.84762e-008
2.68179e-013
1.42945e-009
2.74496e-008
-3.71857e-011
1.08732e-009
2.66713e-008
-7.76487e-011
8.16741e-010
2.60842e-008
-1.18573e-010
6.07368e-010
2.56409e-008
-1.57418e-010
4.49064e-010
2.53033e-008
-1.92069e-010
3.3255e-010
2.50411e-008
-2.21067e-010
2.493e-010
2.48314e-008
-2.43667e-010
1.91595e-010
2.46574e-008
-2.59754e-010
1.52709e-010
2.45072e-008
-2.69717e-010
1.27269e-010
2.43727e-008
-2.74295e-010
1.11176e-010
2.42484e-008
-2.74396e-010
1.01485e-010
2.41306e-008
-2.7093e-010
9.60815e-011
2.4017e-008
-2.64747e-010
9.34158e-011
2.39061e-008
-2.56608e-010
9.2411e-011
2.37972e-008
-2.4717e-010
9.22692e-011
2.36901e-008
-2.36987e-010
9.24862e-011
2.35846e-008
-2.26489e-010
9.27087e-011
2.3481e-008
-2.15993e-010
9.27474e-011
2.33793e-008
-2.05717e-010
9.25119e-011
2.32799e-008
-1.95807e-010
9.1963e-011
2.31828e-008
-1.86347e-010
9.11287e-011
2.30882e-008
-1.77384e-010
9.00196e-011
2.29962e-008
-1.68932e-010
8.86955e-011
2.29068e-008
-1.60987e-010
8.71796e-011
2.28199e-008
-1.5353e-010
8.55276e-011
2.27357e-008
-1.46537e-010
8.37677e-011
2.26539e-008
-1.3998e-010
8.19393e-011
2.25745e-008
-1.3383e-010
8.00713e-011