/*--------------------------------*- C++ -*----------------------------------*\
| =========                 |                                                 |
| \\      /  F ield         | OpenFOAM: The Open Source CFD Toolbox           |
|  \\    /   O peration     | Version:  5.x                                   |
|   \\  /    A nd           | Web:      www.OpenFOAM.org                      |
|    \\/     M anipulation  |                                                 |
\*---------------------------------------------------------------------------*/
/*   Windows 32 and 64 bit porting by blueCAPE: http://www.bluecape.com.pt   *\
|  Based on Windows porting (2.0.x v4) by Symscape: http://www.symscape.com   |
\*---------------------------------------------------------------------------*/
FoamFile
{
    version     2.0;
    format      ascii;
    class       volScalarField;
    location    "30";
    object      p;
}
// * * * * * * * * * * * * * * * * * * * * * * * * * * * * * * * * * * * * * //

dimensions      [0 2 -2 0 0 0 0];

internalField   nonuniform List<scalar> 
10000
(
72.6988
64.9504
59.8568
57.3716
55.3149
53.2646
51.4821
50.0203
48.7763
47.6748
46.691
45.8137
45.0273
44.3131
43.653
43.0309
42.434
41.8524
41.2791
40.7094
40.1401
39.5696
38.9969
38.4219
37.8447
37.2658
36.6856
36.1047
35.5238
34.9433
34.3637
33.7854
33.2088
32.6342
32.0618
31.4918
30.9244
30.3598
29.798
29.239
28.683
28.13
27.58
27.0329
26.4888
25.9477
25.4095
24.8742
24.3419
23.8124
23.2857
22.7618
22.2407
21.7224
21.2067
20.6937
20.1833
19.6755
19.1702
18.6674
18.1671
17.6692
17.1737
16.6805
16.1897
15.7011
15.2147
14.7305
14.2485
13.7686
13.2908
12.8151
12.3414
11.8697
11.3999
10.9321
10.4663
10.0023
9.54013
9.07983
8.62132
8.16458
7.70958
7.25628
6.80466
6.35469
5.90636
5.45964
5.01452
4.57096
4.12895
3.68846
3.24946
2.8119
2.3758
1.94104
1.5079
1.07554
0.645997
0.213716
69.5177
63.5987
59.3447
57.143
55.2525
53.2823
51.5107
50.0365
48.7809
47.6715
46.6827
45.8037
45.0185
44.3068
43.6488
43.0281
42.4319
41.8506
41.2774
40.7077
40.1385
39.5681
38.9956
38.4207
37.8437
37.2649
36.6848
36.1041
35.5232
34.9428
34.3633
33.7851
33.2086
32.6341
32.0617
31.4918
30.9245
30.3599
29.7981
29.2391
28.6831
28.1301
27.5801
27.033
26.4889
25.9478
25.4096
24.8743
24.342
23.8125
23.2858
22.7619
22.2408
21.7224
21.2067
20.6937
20.1833
19.6755
19.1702
18.6675
18.1672
17.6693
17.1737
16.6805
16.1897
15.7011
15.2147
14.7305
14.2485
13.7686
13.2908
12.8151
12.3414
11.8696
11.3999
10.9321
10.4662
10.0022
9.54012
9.07981
8.62131
8.16457
7.70957
7.25627
6.80465
6.35468
5.90635
5.45963
5.0145
4.57095
4.12894
3.68844
3.24944
2.81189
2.37579
1.94102
1.50793
1.07548
0.646476
0.21323
67.9425
63.2149
59.3694
57.1264
55.2517
53.3432
51.5943
50.1129
48.8487
47.7351
46.7427
45.8594
45.0699
44.3545
43.6929
43.0682
42.4675
41.8815
41.3038
40.73
40.1572
39.5836
39.0084
38.4312
37.8521
37.2716
36.69
36.108
35.5261
34.9448
34.3645
33.7857
33.2087
32.6338
32.0611
31.491
30.9235
30.3587
29.7968
29.2378
28.6818
28.1288
27.5787
27.0316
26.4876
25.9465
25.4083
24.8731
24.3407
23.8113
23.2846
22.7608
22.2397
21.7213
21.2057
20.6927
20.1823
19.6746
19.1693
18.6666
18.1663
17.6684
17.1729
16.6798
16.1889
15.7003
15.214
14.7298
14.2478
13.7679
13.2902
12.8144
12.3407
11.8691
11.3993
10.9316
10.4657
10.0017
9.53961
9.07932
8.62083
8.1641
7.70911
7.25582
6.80421
6.35425
5.90593
5.45923
5.01412
4.57057
4.12858
3.68809
3.2491
2.81155
2.37546
1.94069
1.50767
1.07516
0.646981
0.212275
66.9393
62.6015
59.0472
56.9008
55.1122
53.2972
51.6041
50.1458
48.8951
47.7943
46.8116
45.933
45.1451
44.4295
43.7666
43.1394
42.535
41.9445
41.3619
40.7831
40.2054
39.6273
39.0479
38.4669
37.8843
37.3005
36.7161
36.1314
35.5472
34.9638
34.3816
33.8012
33.2227
32.6464
32.0726
31.5015
30.933
30.3675
29.8048
29.2452
28.6886
28.135
27.5845
27.037
26.4925
25.951
25.4125
24.877
24.3443
23.8146
23.2877
22.7636
22.2424
21.7238
21.208
20.6948
20.1843
19.6764
19.171
18.6681
18.1677
17.6697
17.1741
16.6808
16.1899
15.7012
15.2148
14.7306
14.2485
13.7685
13.2907
12.8149
12.3412
11.8695
11.3997
10.9319
10.466
10.002
9.53981
9.07948
8.62096
8.1642
7.70919
7.25588
6.80425
6.35428
5.90594
5.45923
5.01411
4.57056
4.12856
3.68807
3.24907
2.81151
2.37542
1.94063
1.50765
1.07512
0.647373
0.211768
66.1436
61.9565
58.6685
56.7019
55.0136
53.2682
51.6192
50.1833
48.947
47.8595
46.8883
46.0177
45.234
44.5198
43.8563
43.2269
42.6188
42.0234
41.435
40.85
40.2663
39.6824
39.0976
38.5117
37.9247
37.3369
36.7488
36.161
35.5738
34.9878
34.4034
33.8208
33.2406
32.6627
32.0875
31.515
30.9455
30.379
29.8155
29.2551
28.6978
28.1436
27.5925
27.0445
26.4996
25.9577
25.4188
24.883
24.35
23.82
23.2928
22.7685
22.247
21.7282
21.2122
20.6988
20.1881
19.68
19.1744
18.6714
18.1708
17.6727
17.1769
16.6835
16.1925
15.7037
15.2171
14.7328
14.2506
13.7705
13.2926
12.8167
12.3429
11.871
11.4012
10.9333
10.4673
10.0032
9.54097
9.08057
8.62198
8.16515
7.71006
7.25669
6.805
6.35497
5.90659
5.45983
5.01467
4.57108
4.12904
3.68852
3.24948
2.81189
2.37576
1.94094
1.50786
1.07533
0.647254
0.211754
65.5337
61.4455
58.3412
56.5193
54.911
53.2176
51.6094
50.2035
48.9891
47.9196
46.9634
46.1037
45.3268
44.6161
43.9535
43.3228
42.7115
42.1114
41.5172
40.926
40.336
39.7461
39.1557
38.5647
37.9731
37.3811
36.7893
36.198
35.6078
35.0191
34.4322
33.8475
33.2652
32.6856
32.1089
31.535
30.9642
30.3966
29.8321
29.2707
28.7126
28.1576
27.6058
27.0572
26.5116
25.9692
25.4298
24.8934
24.36
23.8296
23.302
22.7773
22.2555
21.7363
21.22
20.7063
20.1953
19.6869
19.1811
18.6778
18.177
17.6786
17.1827
16.689
16.1978
15.7088
15.222
14.7375
14.2552
13.775
13.2969
12.8208
12.3469
11.8749
11.4049
10.9369
10.4708
10.0065
9.54418
9.08366
8.62495
8.16802
7.71283
7.25936
6.80758
6.35748
5.90902
5.46219
5.01696
4.57331
4.13122
3.69064
3.25156
2.81393
2.37774
1.94289
1.50963
1.07709
0.648144
0.212916
65.1032
61.0753
58.0632
56.3238
54.7751
53.1287
51.5625
50.1919
49.0047
47.9557
47.015
46.1669
45.3978
44.6918
44.031
43.3999
42.7861
42.1819
41.5825
40.9855
40.3894
39.7936
39.1977
38.6016
38.0055
37.4095
36.8141
36.2197
35.6268
35.0357
34.4468
33.8603
33.2766
32.6956
32.1177
31.5429
30.9713
30.4029
29.8378
29.276
28.7173
28.162
27.6098
27.0609
26.5151
25.9724
25.4328
24.8963
24.3627
23.8321
23.3044
22.7796
22.2576
21.7384
21.2219
20.7081
20.1971
19.6886
19.1827
18.6793
18.1784
17.6799
17.1839
16.6902
16.1989
15.7098
15.223
14.7384
14.256
13.7757
13.2976
12.8215
12.3475
11.8754
11.4054
10.9373
10.4711
10.0068
9.54442
9.08385
8.62508
8.16809
7.71285
7.25933
6.80752
6.35737
5.90888
5.46203
5.01678
4.57312
4.13102
3.69045
3.25137
2.81377
2.37759
1.94278
1.50946
1.07697
0.647638
0.212876
64.8474
60.8689
57.9185
56.2419
54.741
53.1249
51.5813
50.2324
49.065
48.0322
47.1038
46.2646
45.5019
44.7996
44.1402
43.5081
42.8912
42.2822
41.6768
41.0729
40.4697
39.8667
39.2639
38.6614
38.0592
37.4578
36.8576
36.2588
35.6619
35.0673
34.4752
33.8859
33.2996
32.7165
32.1366
31.56
30.9868
30.4169
29.8505
29.2875
28.7278
28.1715
27.6185
27.0688
26.5223
25.979
25.4388
24.9017
24.3677
23.8366
23.3085
22.7834
22.261
21.7415
21.2248
20.7108
20.1995
19.6908
19.1847
18.6811
18.1801
17.6815
17.1853
16.6915
16.2
15.7108
15.2239
14.7392
14.2567
13.7764
13.2981
12.8219
12.3478
11.8757
11.4056
10.9374
10.4712
10.0069
9.54439
9.08375
8.62492
8.16788
7.71259
7.25902
6.80717
6.357
5.90848
5.46161
5.01636
4.5727
4.13061
3.69006
3.25104
2.8135
2.37743
1.94274
1.50964
1.07725
0.648531
0.2128
64.8243
60.6883
57.6681
56.0365
54.6035
53.0294
51.5084
50.1779
49.0297
48.0145
47.1008
46.2731
45.5187
44.8219
44.1658
43.535
42.9181
42.3079
41.7005
41.0943
40.4884
39.8827
39.2772
38.6722
38.0677
37.4643
36.8623
36.2621
35.6641
35.0685
34.4756
33.8856
33.2988
32.7152
32.1349
31.558
30.9845
30.4144
29.8478
29.2845
28.7247
28.1682
27.6151
27.0652
26.5186
25.9752
25.4349
24.8977
24.3635
23.8324
23.3042
22.779
22.2566
21.737
21.2202
20.7061
20.1948
19.686
19.1799
18.6763
18.1752
17.6765
17.1803
16.6865
16.195
15.7058
15.2188
14.7341
14.2516
13.7712
13.2929
12.8167
12.3426
11.8705
11.4003
10.9322
10.4659
10.0016
9.53906
9.07841
8.61957
8.16251
7.70722
7.25366
6.80181
6.35166
5.90317
5.45633
5.01112
4.56752
4.1255
3.68505
3.24616
2.80879
2.37297
1.93855
1.50601
1.07399
0.647161
0.211045
65.9941
61.4194
58.0747
56.2977
54.7976
53.1784
51.6243
50.275
49.1214
48.1107
47.2066
46.3898
45.6443
44.9526
44.2971
43.6631
43.0401
42.422
41.8057
41.1902
40.5752
39.9605
39.3463
38.7328
38.1205
37.5099
36.9013
36.2954
35.6923
35.0922
34.4954
33.9021
33.3124
32.7262
32.1438
31.565
30.99
30.4186
29.8508
29.2867
28.7261
28.169
27.6153
27.065
26.518
25.9743
25.4338
24.8965
24.3622
23.831
23.3028
22.7775
22.2551
21.7355
21.2187
20.7046
20.1932
19.6845
19.1784
18.6748
18.1737
17.6751
17.1789
16.6851
16.1936
15.7044
15.2175
14.7327
14.2502
13.7698
13.2916
12.8154
12.3413
11.8692
11.399
10.9308
10.4646
10.0002
9.5377
9.07704
8.61819
8.16112
7.70582
7.25226
6.80041
6.35025
5.90177
5.45495
5.00976
4.56619
4.12422
3.68385
3.24505
2.80782
2.37216
1.93798
1.5056
1.07398
0.645937
0.212268
69.5178
63.5987
59.3447
57.1428
55.2524
53.2824
51.5108
50.0366
48.7809
47.6714
46.6827
45.8037
45.0186
44.3068
43.6488
43.0281
42.4319
41.8506
41.2774
40.7077
40.1385
39.5681
38.9956
38.4207
37.8437
37.2649
36.6848
36.1041
35.5232
34.9428
34.3633
33.7851
33.2086
32.6341
32.0617
31.4918
30.9245
30.3599
29.7981
29.2391
28.6832
28.1301
27.5801
27.033
26.4889
25.9478
25.4096
24.8743
24.342
23.8125
23.2858
22.7619
22.2408
21.7224
21.2067
20.6937
20.1833
19.6755
19.1702
18.6675
18.1672
17.6693
17.1737
16.6805
16.1897
15.7011
15.2147
14.7305
14.2485
13.7686
13.2908
12.8151
12.3413
11.8696
11.3999
10.9321
10.4662
10.0022
9.54012
9.07981
8.62131
8.16457
7.70956
7.25626
6.80465
6.35468
5.90634
5.45962
5.0145
4.57095
4.12894
3.68844
3.24944
2.81189
2.37579
1.94102
1.50793
1.07548
0.646476
0.213229
66.2229
62.1645
58.8619
56.9762
55.2456
53.3556
51.592
50.0994
48.8306
47.716
46.724
45.8406
45.0505
44.3342
43.6722
43.0478
42.4482
41.8637
41.2877
40.7156
40.1446
39.5728
38.9994
38.4239
37.8464
37.2674
36.6872
36.1064
35.5256
34.9452
34.3657
33.7876
33.2111
32.6365
32.0642
31.4942
30.9269
30.3622
29.8003
29.2414
28.6853
28.1322
27.5821
27.035
26.4908
25.9496
25.4114
24.8761
24.3436
23.8141
23.2873
22.7634
22.2422
21.7238
21.208
20.695
20.1845
19.6767
19.1714
18.6685
18.1682
17.6702
17.1747
16.6815
16.1906
15.7019
15.2155
14.7313
14.2493
13.7694
13.2915
12.8158
12.342
11.8703
11.4005
10.9327
10.4668
10.0028
9.5407
9.08038
8.62186
8.16511
7.7101
7.25679
6.80516
6.35518
5.90683
5.4601
5.01497
4.5714
4.12939
3.68889
3.24988
2.81232
2.37622
1.94142
1.50836
1.07588
0.647886
0.212182
64.6825
61.8625
59.0069
57.0332
55.2687
53.4346
51.7104
50.2239
48.9514
47.8329
46.8352
45.9432
45.1429
44.4165
43.7451
43.1122
42.5045
41.9125
41.3296
40.7513
40.1748
39.5982
39.0205
38.4414
37.8609
37.2792
36.6968
36.1141
35.5317
34.95
34.3694
33.7903
33.2131
32.6379
32.0651
31.4947
30.9271
30.3622
29.8001
29.241
28.6849
28.1317
27.5816
27.0344
26.4903
25.9491
25.4108
24.8755
24.3431
23.8136
23.2869
22.763
22.2418
21.7234
21.2077
20.6946
20.1842
19.6764
19.1711
18.6683
18.168
17.67
17.1745
16.6812
16.1903
15.7017
15.2153
14.7311
14.2491
13.7692
13.2914
12.8156
12.3419
11.8702
11.4004
10.9326
10.4668
10.0028
9.54062
9.08031
8.6218
8.16505
7.71004
7.25674
6.80511
6.35514
5.9068
5.46007
5.01494
4.57138
4.12937
3.68888
3.24988
2.81232
2.37622
1.94141
1.50843
1.076
0.649404
0.21021
63.6917
61.2461
58.6592
56.767
55.0932
53.3748
51.7271
50.2717
49.0116
47.903
46.9135
46.0264
45.2279
44.5013
43.8284
43.1928
42.5814
41.9849
41.3969
40.8133
40.2313
39.6494
39.0669
38.4832
37.8985
37.3131
36.7273
36.1415
35.5564
34.9722
34.3895
33.8085
33.2295
32.6528
32.0786
31.5071
30.9383
30.3725
29.8096
29.2497
28.6929
28.1392
27.5885
27.0409
26.4963
25.9547
25.4161
24.8804
24.3477
23.8179
23.2909
22.7667
22.2454
21.7267
21.2108
20.6976
20.187
19.679
19.1735
18.6706
18.1701
17.672
17.1764
16.683
16.192
15.7033
15.2168
14.7325
14.2504
13.7704
13.2925
12.8167
12.3429
11.8712
11.4014
10.9335
10.4676
10.0035
9.54133
9.08098
8.62243
8.16565
7.71061
7.25727
6.80562
6.35562
5.90725
5.46051
5.01536
4.5718
4.12978
3.68928
3.25027
2.8127
2.37657
1.94176
1.5088
1.07643
0.650547
0.209336
62.8944
60.5792
58.2589
56.5611
55
53.3608
51.7623
50.3281
49.077
47.9764
46.9955
46.1152
45.3203
44.5945
43.9203
43.2816
42.6659
42.0639
41.4699
40.8799
40.2916
39.7039
39.1158
38.5272
37.938
37.3485
36.759
36.1701
35.582
34.9953
34.4102
33.8271
33.2463
32.668
32.0924
31.5196
30.9497
30.3829
29.8191
29.2585
28.701
28.1467
27.5955
27.0474
26.5024
25.9605
25.4216
24.8856
24.3527
23.8226
23.2954
22.771
22.2495
21.7306
21.2146
20.7012
20.1904
19.6823
19.1767
18.6736
18.173
17.6748
17.1789
16.6855
16.1944
15.7055
15.219
14.7346
14.2524
13.7723
13.2943
12.8184
12.3445
11.8727
11.4028
10.9348
10.4688
10.0047
9.54244
9.08202
8.6234
8.16655
7.71144
7.25805
6.80634
6.35629
5.90788
5.46109
5.01591
4.57231
4.13026
3.68973
3.25069
2.81308
2.3769
1.94205
1.50892
1.07661
0.650114
0.209473
62.2831
60.057
57.9229
56.3791
54.9016
53.3152
51.7583
50.3542
49.1239
48.0399
47.0732
46.2038
45.4158
44.6932
44.0192
43.3785
42.7589
42.1519
41.552
40.9558
40.3615
39.7678
39.1743
38.5807
37.9871
37.3935
36.8004
36.2081
35.617
35.0275
34.4399
33.8546
33.2718
32.6916
32.1144
31.5401
30.9689
30.4008
29.836
29.2744
28.716
28.1609
27.609
27.0602
26.5146
25.9721
25.4326
24.8962
24.3628
23.8323
23.3046
22.7799
22.2579
21.7388
21.2224
20.7087
20.1976
19.6892
19.1833
18.68
18.1791
17.6806
17.1846
16.691
16.1996
15.7106
15.2238
14.7393
14.2569
13.7767
13.2985
12.8225
12.3485
11.8765
11.4065
10.9384
10.4723
10.008
9.54564
9.08511
8.62638
8.16943
7.71423
7.26074
6.80895
6.35882
5.91034
5.4635
5.01826
4.5746
4.1325
3.69191
3.25282
2.81516
2.37892
1.94403
1.51063
1.07836
0.650463
0.211247
61.8528
59.6798
57.6332
56.1703
54.7514
53.2131
51.7023
50.3388
49.1398
48.0787
47.1282
46.2697
45.4883
44.7685
44.0946
43.4519
42.8288
42.2173
41.6122
41.0105
40.4106
39.8117
39.2132
38.615
38.0172
37.4199
36.8235
36.2282
35.6345
35.0428
34.4532
33.8661
33.2818
32.7004
32.122
31.5467
30.9748
30.406
29.8407
29.2786
28.7198
28.1644
27.6122
27.0631
26.5173
25.9746
25.435
24.8984
24.3648
23.8342
23.3065
22.7816
22.2596
21.7403
21.2238
20.71
20.1989
19.6904
19.1844
18.681
18.18
17.6815
17.1854
16.6917
16.2003
15.7112
15.2244
14.7398
14.2574
13.7771
13.2989
12.8228
12.3487
11.8766
11.4066
10.9385
10.4723
10.008
9.54554
9.08495
8.62617
8.16917
7.71392
7.26039
6.80856
6.3584
5.9099
5.46304
5.01778
4.57411
4.132
3.69142
3.25233
2.8147
2.37847
1.94363
1.51011
1.07798
0.649299
0.211379
61.5986
59.4756
57.4961
56.0991
54.7268
53.216
51.7269
50.3861
49.2088
48.1652
47.2272
46.3768
45.5998
44.8815
44.2066
43.5611
42.9338
42.3168
41.7056
41.0973
40.4908
39.8852
39.2803
38.6761
38.0726
37.47
36.8687
36.269
35.6713
35.0758
34.4829
33.8929
33.3059
32.7221
32.1416
31.5644
30.9908
30.4206
29.8539
29.2906
28.7308
28.1743
27.6212
27.0714
26.5249
25.9815
25.4413
24.9042
24.3701
23.8391
23.3109
22.7857
22.2633
21.7438
21.227
20.7129
20.2016
19.6928
19.1867
18.683
18.1819
17.6833
17.187
16.6932
16.2017
15.7125
15.2255
14.7408
14.2583
13.7779
13.2996
12.8234
12.3493
11.8771
11.407
10.9388
10.4725
10.0082
9.54569
9.08503
8.62619
8.16913
7.71382
7.26025
6.80838
6.35819
5.90967
5.46278
5.01752
4.57385
4.13175
3.69119
3.25215
2.81459
2.37847
1.94377
1.51047
1.07853
0.650719
0.210975
61.5695
59.2665
57.2147
55.8771
54.5814
53.1121
51.643
50.32
49.163
48.1392
47.2182
46.3808
45.6132
44.901
44.2295
43.5852
42.9575
42.3393
41.7262
41.1158
40.507
39.8992
39.2921
38.6857
38.0802
37.4759
36.873
36.272
35.6731
35.0767
34.483
33.8922
33.3046
32.7203
32.1394
31.5619
30.988
30.4175
29.8506
29.2871
28.7271
28.1705
27.6172
27.0672
26.5205
25.977
25.4367
24.8994
24.3652
23.8341
23.3058
22.7805
22.2581
21.7385
21.2216
20.7075
20.1961
19.6873
19.1811
18.6775
18.1764
17.6777
17.1814
16.6876
16.1961
15.7068
15.2199
14.7352
14.2526
13.7722
13.294
12.8178
12.3436
11.8715
11.4013
10.9331
10.4669
10.0025
9.54
9.07933
8.62049
8.16342
7.70812
7.25456
6.8027
6.35254
5.90405
5.4572
5.01199
4.56838
4.12636
3.68591
3.24701
2.80964
2.37379
1.93941
1.50681
1.0753
0.650207
0.208158
62.759
60.0198
57.6014
56.0964
54.7453
53.2455
51.7486
50.4068
49.2442
48.2254
47.3151
46.4898
45.732
45.0256
44.3553
43.7082
43.0747
42.4486
41.8263
41.2063
40.5876
39.9701
39.3537
38.7384
38.1247
37.513
36.9035
36.2966
35.6927
35.092
34.4946
33.9007
33.3105
32.7239
32.1412
31.5623
30.9871
30.4156
29.8479
29.2838
28.7233
28.1662
27.6127
27.0625
26.5157
25.9721
25.4317
24.8944
24.3603
23.8291
23.301
22.7757
22.2534
21.7339
21.2172
20.7032
20.1919
19.6832
19.1771
18.6736
18.1726
17.674
17.1779
16.6841
16.1927
15.7035
15.2166
14.732
14.2495
13.7692
13.291
12.8148
12.3407
11.8686
11.3985
10.9304
10.4641
9.99978
9.5373
9.07666
8.61784
8.1608
7.70552
7.25198
6.80015
6.35002
5.90156
5.45476
5.0096
4.56605
4.12411
3.68376
3.24499
2.80778
2.37216
1.93801
1.50575
1.07423
0.647326
0.210577
67.9427
63.2152
59.3693
57.1258
55.2513
53.3433
51.5947
50.1132
48.8488
47.7351
46.7427
45.8593
45.0699
44.3545
43.6929
43.0682
42.4675
41.8815
41.3038
40.73
40.1572
39.5836
39.0084
38.4312
37.8521
37.2716
36.69
36.108
35.526
34.9447
34.3645
33.7857
33.2087
32.6338
32.0612
31.491
30.9235
30.3587
29.7968
29.2379
28.6818
28.1288
27.5787
27.0317
26.4876
25.9465
25.4083
24.8731
24.3407
23.8113
23.2846
22.7608
22.2397
21.7213
21.2057
20.6927
20.1823
19.6746
19.1693
18.6666
18.1663
17.6684
17.1729
16.6798
16.1889
15.7003
15.214
14.7298
14.2478
13.7679
13.2902
12.8144
12.3407
11.8691
11.3993
10.9316
10.4657
10.0017
9.5396
9.07931
8.62082
8.16409
7.7091
7.25581
6.8042
6.35425
5.90593
5.45922
5.01411
4.57057
4.12857
3.68809
3.2491
2.81155
2.37546
1.94069
1.50768
1.07516
0.646977
0.212272
64.6827
61.8628
59.0069
57.0328
55.2682
53.4346
51.7107
50.2243
48.9516
47.833
46.8352
45.9432
45.1429
44.4165
43.7451
43.1121
42.5045
41.9125
41.3296
40.7513
40.1748
39.5982
39.0205
38.4414
37.8609
37.2792
36.6968
36.1141
35.5317
34.95
34.3694
33.7903
33.2131
32.6379
32.0651
31.4947
30.9271
30.3622
29.8001
29.241
28.6849
28.1317
27.5816
27.0344
26.4903
25.9491
25.4108
24.8755
24.3431
23.8136
23.2869
22.7629
22.2418
21.7234
21.2077
20.6946
20.1842
19.6764
19.1711
18.6683
18.168
17.67
17.1745
16.6812
16.1904
15.7017
15.2153
14.7311
14.2491
13.7692
13.2914
12.8156
12.3419
11.8702
11.4004
10.9326
10.4668
10.0028
9.54062
9.08031
8.6218
8.16505
7.71004
7.25674
6.80511
6.35513
5.90679
5.46006
5.01493
4.57138
4.12937
3.68888
3.24988
2.81232
2.37622
1.94141
1.50844
1.076
0.649401
0.210207
63.1222
61.5578
59.1903
57.1148
55.2937
53.525
51.8683
50.4127
49.1508
48.0352
47.0325
46.1269
45.3067
44.5577
43.8641
43.211
42.5858
41.979
41.3838
40.7954
40.2106
39.6274
39.0445
38.4613
37.8775
37.2932
36.7087
36.1244
35.5406
34.9576
34.376
33.7961
33.2181
32.6422
32.0688
31.4979
30.9297
30.3644
29.802
29.2425
28.6861
28.1327
27.5824
27.0351
26.4909
25.9496
25.4113
24.8759
24.3435
23.8139
23.2872
22.7632
22.2421
21.7236
21.2079
20.6949
20.1844
19.6766
19.1714
18.6686
18.1682
17.6703
17.1747
16.6815
16.1906
15.702
15.2156
14.7314
14.2494
13.7695
13.2916
12.8159
12.3422
11.8704
11.4007
10.9329
10.467
10.003
9.54086
9.08055
8.62204
8.16529
7.71029
7.25698
6.80536
6.35538
5.90703
5.4603
5.01516
4.57161
4.1296
3.68912
3.25012
2.81255
2.37643
1.94161
1.50872
1.07663
0.651936
0.206389
62.1233
60.9357
58.8445
56.841
55.1065
53.471
51.9151
50.5045
49.2569
48.1469
47.1473
46.2419
45.4186
44.6643
43.9644
43.3045
42.6724
42.0586
41.4565
40.8614
40.2702
39.6811
39.0929
38.5049
37.9169
37.329
36.7413
36.1541
35.5678
34.9828
34.3992
33.8175
33.2379
32.6606
32.0859
31.5137
30.9444
30.378
29.8146
29.2543
28.697
28.1429
27.5918
27.0439
26.4991
25.9573
25.4185
24.8827
24.3498
23.8199
23.2928
22.7685
22.247
21.7283
21.2123
20.699
20.1884
19.6804
19.1749
18.6719
18.1714
17.6733
17.1776
16.6842
16.1931
15.7043
15.2178
14.7335
14.2514
13.7714
13.2935
12.8176
12.3438
11.872
11.4022
10.9343
10.4683
10.0043
9.54207
9.0817
8.62314
8.16635
7.71129
7.25795
6.80628
6.35626
5.90787
5.46111
5.01595
4.57237
4.13035
3.68985
3.25083
2.81324
2.37707
1.94223
1.5093
1.0775
0.653265
0.20473
61.3175
60.2523
58.435
56.6375
55.0239
53.4794
51.985
50.6007
49.3589
48.2502
47.2529
46.3495
45.5263
44.7699
44.0658
43.4001
42.7612
42.1401
41.5302
40.9274
40.3289
39.733
39.1387
38.5453
37.9527
37.3608
36.7697
36.1797
35.591
35.0038
34.4185
33.8352
33.2542
32.6756
32.0997
31.5265
30.9563
30.389
29.8248
29.2637
28.7058
28.1511
27.5996
27.0512
26.5059
25.9637
25.4246
24.8885
24.3554
23.8251
23.2978
22.7733
22.2517
21.7328
21.2166
20.7031
20.1923
19.6841
19.1785
18.6754
18.1747
17.6764
17.1806
16.687
16.1958
15.7069
15.2203
14.7359
14.2537
13.7735
13.2955
12.8196
12.3457
11.8738
11.4039
10.9359
10.4699
10.0057
9.54342
9.08297
8.62433
8.16746
7.71234
7.25892
6.80719
6.35711
5.90868
5.46186
5.01667
4.57305
4.13099
3.69046
3.25139
2.81374
2.37748
1.94256
1.50925
1.07763
0.651321
0.205688
60.6977
59.7165
58.0923
56.4594
54.9333
53.4447
51.9974
50.647
49.4261
48.3313
47.3447
46.4491
45.6303
44.8746
44.1685
43.4987
42.8543
42.2268
41.6102
41.0008
40.3959
39.7941
39.1944
38.5963
37.9994
37.4038
36.8094
36.2164
35.6251
35.0355
34.4479
33.8626
33.2798
32.6996
32.1221
31.5475
30.976
30.4075
29.8422
29.2802
28.7214
28.1658
27.6136
27.0645
26.5186
25.9758
25.4361
24.8995
24.3659
23.8353
23.3075
22.7827
22.2606
21.7413
21.2248
20.711
20.1999
19.6914
19.1855
18.6821
18.1811
17.6826
17.1865
16.6927
16.2013
15.7122
15.2254
14.7408
14.2584
13.7781
13.2999
12.8238
12.3497
11.8777
11.4076
10.9395
10.4734
10.0091
9.54668
9.08612
8.62736
8.17039
7.71516
7.26165
6.80983
6.35968
5.91118
5.46431
5.01905
4.57538
4.13326
3.69266
3.25353
2.81582
2.37943
1.94441
1.51053
1.07906
0.649471
0.208964
60.2608
59.3299
57.794
56.2433
54.7743
53.3345
51.9388
50.6366
49.4532
48.3846
47.4152
46.5294
45.7146
44.9584
44.2487
43.5735
42.9227
42.2885
41.6654
41.0498
40.4393
39.8325
39.2284
38.6264
38.0262
37.4276
36.8306
36.2352
35.6417
35.0501
34.4609
33.874
33.2897
32.7082
32.1296
31.5541
30.9817
30.4125
29.8467
29.2842
28.725
28.1691
27.6166
27.0673
26.5212
25.9782
25.4384
24.9017
24.368
23.8373
23.3094
22.7845
22.2624
21.743
21.2264
20.7126
20.2013
19.6928
19.1867
18.6832
18.1822
17.6836
17.1874
16.6936
16.2021
15.7129
15.226
14.7414
14.2589
13.7785
13.3003
12.8241
12.35
11.8779
11.4078
10.9396
10.4734
10.009
9.54655
9.08593
8.62712
8.17009
7.71481
7.26126
6.8094
6.35922
5.9107
5.4638
5.01853
4.57484
4.13272
3.69211
3.25297
2.81526
2.37885
1.94384
1.50966
1.07848
0.646946
0.209933
60.0018
59.1206
57.6568
56.1755
54.7524
53.3391
51.9669
50.6914
49.5337
48.4852
47.5289
46.6501
45.837
45.0786
44.3639
43.6822
43.0242
42.3824
41.752
41.1294
40.5125
39.8997
39.2901
38.683
38.0781
37.4751
36.8739
36.2746
35.6774
35.0825
34.49
33.9002
33.3132
32.7293
32.1485
31.571
30.9969
30.4262
29.859
29.2953
28.7351
28.1783
27.6249
27.0748
26.5281
25.9846
25.4443
24.907
24.3729
23.8418
23.3136
22.7883
22.2659
21.7462
21.2294
20.7153
20.2039
19.6951
19.1888
18.6852
18.184
17.6852
17.1889
16.695
16.2034
15.7142
15.2272
14.7424
14.2598
13.7793
13.301
12.8248
12.3506
11.8784
11.4082
10.94
10.4737
10.0093
9.54674
9.08604
8.62716
8.17007
7.71474
7.26112
6.80923
6.35901
5.91046
5.46355
5.01827
4.57457
4.13245
3.69186
3.25276
2.81512
2.37882
1.94396
1.51005
1.07929
0.649009
0.208475
59.9694
58.8996
57.3635
55.9541
54.6132
53.2367
51.8784
50.6185
49.4822
48.4561
47.5192
46.6553
45.8528
45.101
44.3897
43.7087
43.0497
42.4061
41.7733
41.1484
40.5291
39.9143
39.3027
38.6939
38.0873
37.4828
36.8802
36.2797
35.6813
35.0853
34.4918
33.9012
33.3134
32.7288
32.1475
31.5696
30.9951
30.4241
29.8566
29.2927
28.7322
28.1752
27.6216
27.0713
26.5244
25.9806
25.4401
24.9026
24.3683
23.8369
23.3085
22.783
22.2604
21.7407
21.2237
20.7094
20.1979
19.6889
19.1826
18.6789
18.1776
17.6789
17.1825
16.6886
16.197
15.7077
15.2206
14.7359
14.2532
13.7728
13.2945
12.8182
12.344
11.8719
11.4017
10.9335
10.4671
10.0027
9.5402
9.07951
8.62063
8.16355
7.70822
7.25463
6.80276
6.35258
5.90407
5.45722
5.01199
4.56838
4.12635
3.6859
3.24698
2.80959
2.37367
1.93929
1.50643
1.07629
0.651192
0.202637
61.1521
59.641
57.7067
56.1286
54.7535
53.362
51.9782
50.6945
49.5462
48.5196
47.5897
46.7358
45.9427
45.198
44.4902
43.8093
43.1475
42.4989
41.8595
41.227
40.5996
39.9763
39.3565
38.7396
38.1253
37.5137
36.9048
36.2986
35.6952
35.0949
34.4978
33.9041
33.3138
32.7272
32.1442
31.565
30.9895
30.4178
29.8498
29.2854
28.7246
28.1674
27.6137
27.0634
26.5164
25.9726
25.4321
24.8947
24.3604
23.8291
23.3009
22.7755
22.253
21.7334
21.2165
20.7024
20.191
19.6822
19.1761
18.6725
18.1714
17.6728
17.1766
16.6828
16.1913
15.7022
15.2153
14.7306
14.2482
13.7678
13.2896
12.8135
12.3394
11.8673
11.3972
10.9291
10.4628
9.99849
9.53603
9.0754
8.61659
8.15955
7.7043
7.25076
6.79896
6.34883
5.9004
5.45361
5.00847
4.56494
4.12303
3.6827
3.24397
2.80679
2.37123
1.93716
1.5051
1.0739
0.64841
0.20699
66.9396
62.602
59.0469
56.8999
55.1116
53.2974
51.6048
50.1463
48.8953
47.7943
46.8115
45.933
45.1451
44.4295
43.7666
43.1393
42.5349
41.9444
41.3619
40.7831
40.2054
39.6274
39.048
38.4669
37.8843
37.3005
36.716
36.1314
35.5471
34.9637
34.3816
33.8012
33.2227
32.6464
32.0726
31.5015
30.933
30.3675
29.8049
29.2452
28.6886
28.135
27.5845
27.037
26.4925
25.951
25.4125
24.877
24.3443
23.8146
23.2877
22.7636
22.2423
21.7238
21.208
20.6948
20.1843
19.6764
19.171
18.6681
18.1677
17.6697
17.1741
16.6808
16.1899
15.7012
15.2148
14.7306
14.2485
13.7686
13.2907
12.8149
12.3412
11.8694
11.3997
10.9319
10.466
10.002
9.5398
9.07948
8.62095
8.1642
7.70918
7.25587
6.80424
6.35427
5.90593
5.45921
5.0141
4.57055
4.12855
3.68806
3.24906
2.81151
2.37542
1.94063
1.50765
1.07512
0.647366
0.211762
63.692
61.2465
58.6591
56.766
55.0922
53.3748
51.7278
50.2725
49.0121
47.9031
46.9134
46.0262
45.2277
44.5011
43.8283
43.1927
42.5814
41.9849
41.397
40.8133
40.2314
39.6495
39.0669
38.4832
37.8985
37.313
36.7272
36.1415
35.5563
34.9722
34.3894
33.8084
33.2295
32.6528
32.0786
31.5071
30.9384
30.3725
29.8096
29.2498
28.6929
28.1392
27.5885
27.0409
26.4963
25.9547
25.4161
24.8804
24.3477
23.8179
23.2909
22.7667
22.2454
21.7267
21.2108
20.6976
20.187
19.679
19.1735
18.6706
18.1701
17.6721
17.1764
16.683
16.192
15.7033
15.2168
14.7325
14.2504
13.7704
13.2926
12.8167
12.3429
11.8712
11.4013
10.9335
10.4676
10.0035
9.54133
9.08098
8.62243
8.16565
7.7106
7.25727
6.80561
6.35561
5.90724
5.4605
5.01535
4.57179
4.12978
3.68928
3.25027
2.81269
2.37658
1.94176
1.50881
1.07643
0.650538
0.209328
62.1235
60.9359
58.8444
56.8403
55.1058
53.471
51.9157
50.5053
49.2575
48.1471
47.1473
46.2416
45.4183
44.664
43.9642
43.3044
42.6723
42.0586
41.4566
40.8615
40.2703
39.6812
39.0929
38.5049
37.9169
37.3289
36.7412
36.154
35.5678
34.9827
34.3992
33.8175
33.2379
32.6606
32.0859
31.5138
30.9445
30.378
29.8146
29.2543
28.697
28.1429
27.5919
27.0439
26.4991
25.9573
25.4185
24.8827
24.3498
23.8199
23.2928
22.7685
22.247
21.7283
21.2123
20.699
20.1884
19.6804
19.1749
18.6719
18.1714
17.6733
17.1776
16.6842
16.1931
15.7043
15.2178
14.7335
14.2514
13.7714
13.2935
12.8176
12.3438
11.872
11.4022
10.9343
10.4683
10.0043
9.54207
9.0817
8.62314
8.16635
7.71129
7.25794
6.80627
6.35625
5.90787
5.4611
5.01594
4.57236
4.13034
3.68984
3.25083
2.81324
2.37707
1.94223
1.5093
1.0775
0.653256
0.204725
61.1231
60.3224
58.515
56.5728
54.9162
53.4239
51.9867
50.631
49.3966
48.2854
47.2817
46.3707
45.5402
44.7775
44.0688
43.4004
42.7603
42.139
41.5298
40.9279
40.3304
39.7353
39.1416
38.5488
37.9567
37.3652
36.7745
36.1849
35.5965
35.0097
34.4246
33.8416
33.2608
32.6823
32.1064
31.5332
30.9628
30.3952
29.8308
29.2694
28.7112
28.1561
27.6042
27.0555
26.5099
25.9674
25.428
24.8916
24.3583
23.8278
23.3003
22.7757
22.2538
21.7348
21.2185
20.7049
20.194
19.6857
19.1801
18.6769
18.1761
17.6778
17.1819
16.6883
16.197
15.708
15.2214
14.7369
14.2546
13.7745
13.2965
12.8205
12.3466
11.8747
11.4048
10.9368
10.4707
10.0065
9.54425
9.0838
8.62516
8.16828
7.71316
7.25974
6.808
6.35791
5.90946
5.46263
5.01742
4.57379
4.13173
3.6912
3.25215
2.8145
2.37822
1.94331
1.51011
1.07871
0.653338
0.203941
60.3155
59.6399
58.1089
56.3719
54.8357
53.4421
52.0777
50.7541
49.5235
48.4077
47.4005
46.4879
45.6557
44.8899
44.1763
43.5015
42.8537
42.224
41.6058
40.9949
40.3886
39.7854
39.1844
38.5853
37.9878
37.392
36.7979
36.2055
35.6151
35.0266
34.4404
33.8564
33.2748
32.6956
32.1191
31.5453
30.9743
30.4062
29.8411
29.2792
28.7204
28.1648
27.6124
27.0632
26.5172
25.9744
25.4346
24.898
24.3643
23.8337
23.3059
22.7811
22.259
21.7398
21.2234
20.7096
20.1986
19.6902
19.1844
18.6811
18.1802
17.6817
17.1856
16.6919
16.2005
15.7114
15.2246
14.74
14.2577
13.7774
13.2993
12.8232
12.3492
11.8772
11.4072
10.9391
10.4729
10.0086
9.54625
9.08571
8.62696
8.17
7.71478
7.26129
6.80946
6.3593
5.91078
5.4639
5.01863
4.57496
4.13285
3.69227
3.25313
2.81539
2.37892
1.94382
1.50979
1.07852
0.648069
0.20754
59.6918
59.1022
57.769
56.2008
54.7527
53.4173
52.1054
50.8197
49.6096
48.5044
47.5043
46.5967
45.7669
45.0005
44.2836
43.6032
42.9486
42.3112
41.6852
41.0665
40.4529
39.8431
39.2364
38.6322
38.0306
37.4312
36.834
36.2392
35.6465
35.0562
34.4682
33.8826
33.2996
32.719
32.1412
31.5661
30.9939
30.4246
29.8585
29.2956
28.7359
28.1794
27.6262
27.0763
26.5297
25.9862
25.4459
24.9087
24.3747
23.8436
23.3154
22.7902
22.2679
21.7483
21.2316
20.7176
20.2063
19.6976
19.1915
18.6879
18.1868
17.6881
17.1918
16.6979
16.2063
15.717
15.23
14.7452
14.2627
13.7823
13.304
12.8278
12.3536
11.8814
11.4113
10.943
10.4768
10.0124
9.54984
9.08917
8.63032
8.17324
7.71793
7.26432
6.81242
6.36218
5.9136
5.46665
5.02133
4.57759
4.13542
3.69475
3.25553
2.81767
2.38099
1.94565
1.51057
1.0794
0.64265
0.213673
59.2514
58.7142
57.4723
55.9864
54.5931
53.3063
52.0501
50.8182
49.6498
48.5725
47.5895
46.6905
45.8627
45.0931
44.3697
43.6808
43.017
42.3705
41.736
41.1099
40.4901
39.875
39.2641
38.6566
38.0522
37.4505
36.8516
36.255
35.6609
35.0691
34.4799
33.893
33.3087
32.727
32.1481
31.572
30.999
30.429
29.8623
29.2988
28.7387
28.1819
27.6285
27.0784
26.5316
25.988
25.4476
24.9104
24.3763
23.8451
23.317
22.7917
22.2693
21.7497
21.233