/*--------------------------------*- C++ -*----------------------------------*\
| =========                 |                                                 |
| \\      /  F ield         | OpenFOAM: The Open Source CFD Toolbox           |
|  \\    /   O peration     | Version:  5.x                                   |
|   \\  /    A nd           | Web:      www.OpenFOAM.org                      |
|    \\/     M anipulation  |                                                 |
\*---------------------------------------------------------------------------*/
/*   Windows 32 and 64 bit porting by blueCAPE: http://www.bluecape.com.pt   *\
|  Based on Windows porting (2.0.x v4) by Symscape: http://www.symscape.com   |
\*---------------------------------------------------------------------------*/
FoamFile
{
    version     2.0;
    format      ascii;
    class       surfaceScalarField;
    location    "30";
    object      phi;
}
// * * * * * * * * * * * * * * * * * * * * * * * * * * * * * * * * * * * * * //

dimensions      [0 3 -1 0 0 0 0];

internalField   nonuniform List<scalar> 
27900
(
2.58745e-008
1.82372e-009
1.82368e-009
2.13743e-008
2.25019e-009
2.25012e-009
1.71639e-008
2.10524e-009
2.10517e-009
1.36175e-008
1.77314e-009
1.77315e-009
1.0878e-008
1.36962e-009
1.36972e-009
8.89861e-009
9.89582e-010
9.89655e-010
7.50584e-009
6.9637e-010
6.96357e-010
6.50865e-009
4.98677e-010
4.98599e-010
5.76082e-009
3.74016e-010
3.73923e-010
5.17081e-009
2.95088e-010
2.95006e-010
4.68968e-009
2.40609e-010
2.4054e-010
4.29485e-009
1.97431e-010
1.97374e-010
3.97544e-009
1.59709e-010
1.59668e-010
3.72284e-009
1.26295e-010
1.26277e-010
3.52737e-009
9.77191e-011
9.77276e-011
3.37856e-009
7.43817e-011
7.44139e-011
3.2663e-009
5.61014e-011
5.6149e-011
3.18176e-009
4.22453e-011
4.22975e-011
3.11775e-009
3.19885e-011
3.20354e-011
3.06867e-009
2.45383e-011
2.45729e-011
3.03029e-009
1.92067e-011
1.92271e-011
2.99944e-009
1.54519e-011
1.54601e-011
2.97379e-009
1.28545e-011
1.28563e-011
2.95164e-009
1.11002e-011
1.11024e-011
2.93179e-009
9.94568e-012
9.95379e-012
2.91337e-009
9.21678e-012
9.23366e-012
2.89582e-009
8.77288e-012
8.79877e-012
2.87875e-009
8.51819e-012
8.55192e-012
2.86194e-009
8.37872e-012
8.41771e-012
2.84527e-009
8.31187e-012
8.35286e-012
2.82865e-009
8.28232e-012
8.32152e-012
2.81207e-009
8.26954e-012
8.30378e-012
2.79552e-009
8.25729e-012
8.28432e-012
2.77903e-009
8.2404e-012
8.25907e-012
2.76261e-009
8.2128e-012
8.22265e-012
2.74629e-009
8.17144e-012
8.17285e-012
2.7301e-009
8.11319e-012
8.10722e-012
2.71406e-009
8.04004e-012
8.02824e-012
2.69822e-009
7.95051e-012
7.93479e-012
2.68259e-009
7.8486e-012
7.83096e-012
2.66719e-009
7.73451e-012
7.71654e-012
2.65204e-009
7.61459e-012
7.59724e-012
2.63714e-009
7.48658e-012
7.47041e-012
2.62251e-009
7.35509e-012
7.34055e-012
2.60815e-009
7.21839e-012
7.20556e-012
2.59406e-009
7.08336e-012
7.07197e-012
2.58025e-009
6.94567e-012
6.93553e-012
2.5667e-009
6.80914e-012
6.80057e-012
2.55343e-009
6.67059e-012
6.66392e-012
2.54043e-009
6.53703e-012
6.53239e-012
2.52768e-009
6.40404e-012
6.40139e-012
2.51519e-009
6.27578e-012
6.2752e-012
2.50295e-009
6.14829e-012
6.14953e-012
2.49094e-009
6.02724e-012
6.02974e-012
2.47916e-009
5.90634e-012
5.90945e-012
2.46762e-009
5.78838e-012
5.79176e-012
2.4563e-009
5.66897e-012
5.67219e-012
2.44522e-009
5.55476e-012
5.55715e-012
2.43436e-009
5.44158e-012
5.4424e-012
2.42372e-009
5.33481e-012
5.33352e-012
2.4133e-009
5.23101e-012
5.22701e-012
2.40307e-009
5.13605e-012
5.12872e-012
2.39304e-009
5.0429e-012
5.03205e-012
2.38318e-009
4.95398e-012
4.94029e-012
2.37352e-009
4.86367e-012
4.84808e-012
2.36402e-009
4.778e-012
4.76135e-012
2.3547e-009
4.69173e-012
4.67477e-012
2.34554e-009
4.60984e-012
4.5934e-012
2.33655e-009
4.52831e-012
4.51296e-012
2.32771e-009
4.45333e-012
4.43934e-012
2.31902e-009
4.37888e-012
4.3666e-012
2.31046e-009
4.30848e-012
4.29868e-012
2.30204e-009
4.23726e-012
4.2306e-012
2.29375e-009
4.17074e-012
4.16734e-012
2.28558e-009
4.1037e-012
4.10326e-012
2.27753e-009
4.04009e-012
4.04214e-012
2.26961e-009
3.97591e-012
3.97971e-012
2.26179e-009
3.91645e-012
3.921e-012
2.25409e-009
3.85686e-012
3.86142e-012
2.2465e-009
3.80046e-012
3.80497e-012
2.23903e-009
3.7433e-012
3.74811e-012
2.23166e-009
3.69028e-012
3.6958e-012
2.22441e-009
3.63769e-012
3.6444e-012
2.21725e-009
3.58943e-012
3.59783e-012
2.21019e-009
3.54206e-012
3.55229e-012
2.20321e-009
3.49896e-012
3.5107e-012
2.19632e-009
3.4551e-012
3.46782e-012
2.1895e-009
3.4122e-012
3.4255e-012
2.18277e-009
3.36617e-012
3.37974e-012
2.17612e-009
3.32057e-012
3.33395e-012
2.16956e-009
3.2722e-012
3.28487e-012
2.16309e-009
3.22629e-012
3.23787e-012
2.15672e-009
3.17718e-012
3.1873e-012
2.15041e-009
3.1446e-012
3.15282e-012
2.14424e-009
3.08368e-012
3.08955e-012
2.13797e-009
3.12493e-012
3.12772e-012
2.13225e-009
2.84978e-012
2.84912e-012
2.1256e-009
3.30985e-012
3.30805e-012
2.12334e-009
1.10903e-012
1.10715e-012
3.84136e-012
3.84413e-012
3.23619e-008
6.63714e-010
2.15291e-009
3.03059e-008
1.51628e-009
2.78989e-009
2.78017e-008
1.76697e-009
2.84237e-009
2.50751e-008
1.80632e-009
2.69333e-009
2.23353e-008
1.68432e-009
2.42495e-009
1.97847e-008
1.43759e-009
2.10245e-009
1.75405e-008
1.1547e-009
1.78587e-009
1.5635e-008
8.99893e-010
1.50439e-009
1.40522e-008
6.92464e-010
1.26438e-009
1.2755e-008
5.28945e-010
1.06346e-009
1.16986e-008
4.00703e-010
8.96232e-010
1.08403e-008
2.9925e-010
7.56451e-010
1.01435e-008
2.17658e-010
6.38775e-010
9.57879e-009
1.51396e-010
5.3957e-010
9.12207e-009
9.79923e-011
4.56421e-010
8.75306e-009
5.60384e-011
3.87344e-010
8.45442e-009
2.43854e-011
3.30346e-010
8.21154e-009
1.67101e-012
2.83437e-010
8.01249e-009
-1.37344e-011
2.44759e-010
7.84778e-009
-2.34616e-011
2.1271e-010
7.70987e-009
-2.88758e-011
1.86002e-010
7.59282e-009
-3.10896e-011
1.63617e-010
7.49196e-009
-3.09966e-011
1.44751e-010
7.40363e-009
-2.92969e-011
1.2877e-010
7.325e-009
-2.65394e-011
1.15161e-010
7.25388e-009
-2.31361e-011
1.03523e-010
7.18858e-009
-1.94107e-011
9.35151e-011
7.12784e-009
-1.55962e-011
8.48752e-011
7.07072e-009
-1.18645e-011
7.73796e-011
7.0165e-009
-8.32405e-012
7.08637e-011
6.96466e-009
-5.04765e-012
6.51771e-011
6.91481e-009
-2.07329e-012
6.02055e-011
6.86665e-009
5.84834e-013
5.58434e-011
6.81998e-009
2.92445e-012
5.20112e-011
6.77464e-009
4.95121e-012
4.86286e-011
6.73052e-009
6.68374e-012
4.56351e-011
6.68755e-009
8.1475e-012
4.29718e-011
6.64567e-009
9.36993e-012
4.0595e-011
6.60483e-009
1.03777e-011
3.84592e-011
6.565e-009
1.11978e-011
3.65344e-011
6.52615e-009
1.18547e-011
3.47883e-011
6.48826e-009
1.23734e-011
3.32029e-011
6.4513e-009
1.27724e-011
3.17514e-011
6.41524e-009
1.30708e-011
3.04206e-011
6.38007e-009
1.32832e-011
2.91905e-011
6.34576e-009
1.34264e-011
2.80566e-011
6.31229e-009
1.35097e-011
2.70006e-011
6.27963e-009
1.35441e-011
2.60182e-011
6.24776e-009
1.35365e-011
2.50957e-011
6.21665e-009
1.3498e-011
2.42355e-011
6.18629e-009
1.34328e-011
2.34253e-011
6.15664e-009
1.33475e-011
2.2666e-011
6.12768e-009
1.32441e-011
2.19472e-011
6.09938e-009
1.31286e-011
2.1273e-011
6.07171e-009
1.30005e-011
2.06311e-011
6.04467e-009
1.28632e-011
2.00217e-011
6.01823e-009
1.27172e-011
1.9435e-011
5.99238e-009
1.25689e-011
1.88765e-011
5.9671e-009
1.24192e-011
1.83388e-011
5.94239e-009
1.22727e-011
1.78273e-011
5.91821e-009
1.21287e-011
1.73377e-011
5.89454e-009
1.19902e-011
1.68766e-011
5.87136e-009
1.18533e-011
1.64358e-011
5.84865e-009
1.17186e-011
1.60168e-011
5.8264e-009
1.15829e-011
1.56119e-011
5.80457e-009
1.14498e-011
1.52262e-011
5.78317e-009
1.13175e-011
1.48532e-011
5.76217e-009
1.11891e-011
1.44974e-011
5.74157e-009
1.10631e-011
1.41549e-011
5.72133e-009
1.09427e-011
1.38313e-011
5.70146e-009
1.08243e-011
1.35209e-011
5.68192e-009
1.07092e-011
1.32264e-011
5.6627e-009
1.05945e-011
1.29427e-011
5.64379e-009
1.04831e-011
1.26734e-011
5.62518e-009
1.0373e-011
1.24131e-011
5.60685e-009
1.0267e-011
1.21635e-011
5.5888e-009
1.01633e-011
1.19207e-011
5.57101e-009
1.00653e-011
1.16879e-011
5.55347e-009
9.97055e-012
1.14613e-011
5.53618e-009
9.88089e-012
1.12432e-011
5.51914e-009
9.79393e-012
1.10314e-011
5.50233e-009
9.71185e-012
1.08294e-011
5.48575e-009
9.63232e-012
1.06358e-011
5.46939e-009
9.55659e-012
1.04536e-011
5.45323e-009
9.48136e-012
1.02814e-011
5.43726e-009
9.40705e-012
1.01203e-011
5.42147e-009
9.3301e-012
9.96623e-012
5.40585e-009
9.25097e-012
9.81784e-012
5.39041e-009
9.16691e-012
9.67172e-012
5.37514e-009
9.08014e-012
9.52791e-012
5.36004e-009
8.9901e-012
9.38437e-012
5.34511e-009
8.90131e-012
9.24497e-012
5.33037e-009
8.81285e-012
9.10414e-012
5.31579e-009
8.73766e-012
8.98817e-012
5.30139e-009
8.64948e-012
8.83354e-012
5.28701e-009
8.63631e-012
8.8461e-012
5.27309e-009
8.34806e-012
8.38078e-012
5.25853e-009
8.65143e-012
9.1373e-012
5.24822e-009
6.22466e-012
5.12656e-012
8.6718e-012
1.03473e-011
3.55145e-008
3.83357e-010
2.45118e-009
3.29261e-008
1.03774e-009
3.06669e-009
3.04054e-008
1.27862e-009
3.00896e-009
2.80389e-008
1.35181e-009
2.82096e-009
2.58029e-008
1.33987e-009
2.58035e-009
2.37019e-008
1.23817e-009
2.3005e-009
2.17664e-008
1.07765e-009
2.01249e-009
2.00264e-008
9.01427e-010
1.73853e-009
1.84995e-008
7.32012e-010
1.48741e-009
1.71888e-008
5.75695e-010
1.26386e-009
1.6084e-008
4.34551e-010
1.07089e-009
1.51647e-008
3.10055e-010
9.0832e-010
1.44065e-008
2.02642e-010
7.73157e-010
1.37845e-008
1.11884e-010
6.61557e-010
1.32751e-008
3.724e-011
5.70101e-010
1.28572e-008
-2.19569e-011
4.95931e-010
1.25124e-008
-6.7049e-011
4.3628e-010
1.22255e-008
-9.98604e-011
3.88433e-010
1.1984e-008
-1.22221e-010
3.49908e-010
1.1778e-008
-1.35996e-010
3.1854e-010
1.15994e-008
-1.42973e-010
2.92556e-010
1.14425e-008
-1.44752e-010
2.70607e-010
1.13024e-008
-1.42683e-010
2.51691e-010
1.11759e-008
-1.37871e-010
2.3511e-010
1.10602e-008
-1.31194e-010
2.20353e-010
1.09533e-008
-1.23338e-010
2.07072e-010
1.08538e-008
-1.14837e-010
1.94991e-010
1.07604e-008
-1.06092e-010
1.83924e-010
1.06722e-008
-9.74016e-011
1.73716e-010
1.05886e-008
-8.89694e-011
1.64277e-010
1.0509e-008
-8.09357e-011
1.55512e-010
1.0433e-008
-7.33885e-011
1.47368e-010
1.03602e-008
-6.63764e-011
1.39781e-010
1.02904e-008
-5.99153e-011
1.32724e-010
1.02232e-008
-5.39997e-011
1.26149e-010
1.01586e-008
-4.86116e-011
1.20031e-010
1.00961e-008
-4.37228e-011
1.14326e-010
1.00358e-008
-3.92997e-011
1.09013e-010
9.97751e-009
-3.53056e-011
1.04048e-010
9.92104e-009
-3.17011e-011
9.94123e-011
9.86632e-009
-2.84482e-011
9.50683e-011
9.81326e-009
-2.551e-011
9.10019e-011
9.76176e-009
-2.28537e-011
8.71805e-011
9.71175e-009
-2.04487e-011
8.3591e-011
9.66316e-009
-1.82675e-011
8.02061e-011
9.61592e-009
-1.62843e-011
7.7021e-011
9.56998e-009
-1.4478e-011
7.40103e-011
9.52526e-009
-1.28297e-011
7.11675e-011
9.48172e-009
-1.13222e-011
6.84716e-011
9.43932e-009
-9.93911e-012
6.5924e-011
9.39799e-009
-8.66744e-012
6.3506e-011
9.3577e-009
-7.49598e-012
6.12169e-011
9.31839e-009
-6.41518e-012
5.90399e-011
9.28002e-009
-5.41631e-012
5.69776e-011
9.24257e-009
-4.49254e-012
5.50118e-011
9.20597e-009
-3.63704e-012
5.31406e-011
9.17023e-009
-2.84241e-012
5.13479e-011
9.1353e-009
-2.10059e-012
4.96383e-011
9.10117e-009
-1.40492e-012
4.80004e-011
9.0678e-009
-7.4959e-013
4.64392e-011
9.03518e-009
-1.30277e-013
4.49464e-011
9.00324e-009
4.55779e-013
4.3529e-011
8.97198e-009
1.00814e-012
4.21754e-011
8.94136e-009
1.52709e-012
4.0886e-011
8.91135e-009
2.0143e-012
3.96483e-011
8.88193e-009
2.47322e-012
3.8466e-011
8.85309e-009
2.90652e-012
3.73301e-011
8.82479e-009
3.31747e-012
3.62443e-011
8.79703e-009
3.70835e-012
3.52012e-011
8.76977e-009
4.08105e-012
3.42065e-011
8.74299e-009
4.43558e-012
3.32528e-011
8.71667e-009
4.77245e-012
3.23421e-011
8.69079e-009
5.09227e-012
3.14662e-011
8.66532e-009
5.39684e-012
3.06288e-011
8.64025e-009
5.6877e-012
2.98236e-011
8.61555e-009
5.96698e-012
2.90521e-011
8.59122e-009
6.23654e-012
2.83075e-011
8.56724e-009
6.49796e-012
2.75932e-011
8.54359e-009
6.75189e-012
2.69048e-011
8.52026e-009
6.99897e-012
2.6244e-011
8.49725e-009
7.23957e-012
2.56057e-011
8.47453e-009
7.47373e-012
2.4993e-011
8.45211e-009
7.70078e-012
2.44043e-011
8.42996e-009
7.9196e-012
2.38424e-011
8.40807e-009
8.12822e-012
2.33047e-011
8.38641e-009
8.32411e-012
2.27932e-011
8.36498e-009
8.50505e-012
2.23055e-011
8.34375e-009
8.66979e-012
2.18399e-011
8.32274e-009
8.81802e-012
2.13904e-011
8.30192e-009
8.9504e-012
2.09558e-011
8.28132e-009
9.06903e-012
2.05341e-011
8.26091e-009
9.17701e-012
2.01286e-011
8.24071e-009
9.27864e-012
1.97333e-011
8.22069e-009
9.37795e-012
1.93765e-011
8.20086e-009
9.47559e-012
1.89989e-011
8.18105e-009
9.59129e-012
1.8821e-011
8.16165e-009
9.6159e-012
1.80769e-011
8.14155e-009
9.83529e-012
1.88221e-011
8.12625e-009
8.95402e-012
1.24892e-011
1.0054e-011
2.13761e-011
3.99176e-008
2.63608e-010
2.78014e-009
3.67263e-008
7.32898e-010
3.49577e-009
3.36032e-008
9.71063e-010
3.4305e-009
3.06942e-008
1.05011e-009
3.2107e-009
2.80611e-008
1.0493e-009
2.92377e-009
2.57333e-008
9.86011e-010
2.58021e-009
2.37124e-008
8.7676e-010
2.22182e-009
2.19824e-008
7.47778e-010
1.88364e-009
2.05191e-008
6.15796e-010
1.57924e-009
1.92958e-008
4.86061e-010
1.31271e-009
1.82835e-008
3.60738e-010
1.08586e-009
1.74528e-008
2.42846e-010
8.97746e-010
1.67756e-008
1.35538e-010
7.44254e-010
1.62265e-008
4.11172e-011
6.19976e-010
1.57829e-008
-3.90302e-011
5.19933e-010
1.54255e-008
-1.04521e-010
4.40154e-010
1.51366e-008
-1.5557e-010
3.77432e-010
1.49009e-008
-1.93057e-010
3.28926e-010
1.47053e-008
-2.18519e-010
2.91855e-010
1.45393e-008
-2.3383e-010
2.63627e-010
1.43951e-008
-2.40943e-010
2.41985e-010
1.42668e-008
-2.41704e-010
2.25113e-010
1.415e-008
-2.37738e-010
2.11639e-010
1.40418e-008
-2.30407e-010
2.00568e-010
1.39401e-008
-2.20802e-010
1.91204e-010
1.38434e-008
-2.09787e-010
1.83063e-010
1.37508e-008
-1.98016e-010
1.75797e-010
1.36615e-008
-1.85989e-010
1.69168e-010
1.35753e-008
-1.74064e-010
1.63007e-010
1.34917e-008
-1.62494e-010
1.57216e-010
1.34106e-008
-1.51445e-010
1.51714e-010
1.33319e-008
-1.41022e-010
1.46462e-010
1.32555e-008
-1.31281e-010
1.41427e-010
1.31813e-008
-1.2224e-010
1.36613e-010
1.31093e-008
-1.13894e-010
1.32005e-010
1.30394e-008
-1.06219e-010
1.27608e-010
1.29715e-008
-9.91771e-011
1.23407e-010
1.29056e-008
-9.27253e-011
1.19401e-010
1.28416e-008
-8.68163e-011
1.15579e-010
1.27794e-008
-8.1408e-011
1.11945e-010
1.27189e-008
-7.64547e-011
1.08483e-010
1.26601e-008
-7.19157e-011
1.05191e-010
1.2603e-008
-6.77478e-011
1.02052e-010
1.25474e-008
-6.39157e-011
9.90588e-011
1.24934e-008
-6.03808e-011
9.61973e-011
1.24408e-008
-5.71146e-011
9.34651e-011
1.23896e-008
-5.40858e-011
9.08469e-011
1.23397e-008
-5.12725e-011
8.83374e-011
1.22912e-008
-4.86488e-011
8.59243e-011
1.22439e-008
-4.61979e-011
8.36098e-011
1.21978e-008
-4.38993e-011
8.13833e-011
1.21529e-008
-4.17415e-011
7.92435e-011
1.21091e-008
-3.97084e-011
7.71807e-011
1.20663e-008
-3.77923e-011
7.51962e-011
1.20246e-008
-3.59797e-011
7.32781e-011
1.19838e-008
-3.42643e-011
7.14223e-011
1.19441e-008
-3.26324e-011
6.96192e-011
1.19052e-008
-3.10783e-011
6.78719e-011
1.18673e-008
-2.959e-011
6.61765e-011
1.18302e-008
-2.81649e-011
6.45362e-011
1.1794e-008
-2.67943e-011
6.29493e-011
1.17586e-008
-2.54801e-011
6.14191e-011
1.17239e-008
-2.4216e-011
5.99408e-011
1.169e-008
-2.30042e-011
5.85108e-011
1.16568e-008
-2.18368e-011
5.71226e-011
1.16243e-008
-2.07151e-011
5.57757e-011
1.15925e-008
-1.96307e-011
5.44678e-011
1.15612e-008
-1.85847e-011
5.31987e-011
1.15306e-008
-1.75693e-011
5.19674e-011
1.15006e-008
-1.65879e-011
5.07752e-011
1.14711e-008
-1.56347e-011
4.96209e-011
1.14422e-008
-1.47127e-011
4.85008e-011
1.14138e-008
-1.38144e-011
4.74125e-011
1.13858e-008
-1.29431e-011
4.63557e-011
1.13583e-008
-1.20925e-011
4.53312e-011
1.13313e-008
-1.1265e-011
4.43357e-011
1.13046e-008
-1.04531e-011
4.33684e-011
1.12784e-008
-9.66021e-012
4.24274e-011
1.12525e-008
-8.88024e-012
4.15144e-011
1.12271e-008
-8.11678e-012
4.06257e-011
1.12019e-008
-7.36443e-012
3.97617e-011
1.11771e-008
-6.62832e-012
3.89207e-011
1.11527e-008
-5.90501e-012
3.81072e-011
1.11285e-008
-5.20095e-012
3.73193e-011
1.11047e-008
-4.51437e-012
3.65596e-011
1.1081e-008
-3.85327e-012
3.58257e-011
1.10577e-008
-3.21588e-012
3.51203e-011
1.10345e-008
-2.60779e-012
3.44363e-011
1.10116e-008
-2.0248e-012
3.3772e-011
1.09889e-008
-1.4707e-012
3.3122e-011
1.09665e-008
-9.39306e-013
3.24906e-011
1.09442e-008
-4.33455e-013
3.18773e-011
1.09221e-008
5.65941e-014
3.12843e-011
1.09002e-008
5.22069e-013
3.07372e-011
1.08785e-008
9.96475e-013
3.01894e-011
1.08567e-008
1.42744e-012
2.98547e-011
1.08353e-008
1.99701e-012
2.89515e-011
1.0813e-008
2.38121e-012
2.9614e-011
1.07963e-008
3.33749e-012
2.22583e-011
4.06278e-012
3.28135e-011
4.50396e-008
1.75013e-010
3.15491e-009
4.12868e-008
4.9709e-010
3.98818e-009
3.76287e-008
7.02995e-010
3.92598e-009
3.42169e-008
7.92666e-010
3.6693e-009
3.11309e-008
8.08606e-010
3.32708e-009
2.84284e-008
7.74057e-010
2.91471e-009
2.61232e-008
7.01323e-010
2.48073e-009
2.41952e-008
6.06076e-010
2.06953e-009
2.26086e-008
5.0149e-010
1.70045e-009
2.13209e-008
3.93977e-010
1.37927e-009
2.02867e-008
2.86603e-010
1.10801e-009
1.94613e-008
1.82472e-010
8.85497e-010
1.88051e-008
8.49836e-011
7.06782e-010
1.82847e-008
-3.03547e-012
5.6477e-010
1.78729e-008
-7.95855e-011
4.52686e-010
1.7547e-008
-1.4343e-010
3.65022e-010
1.72881e-008
-1.9414e-010
2.97613e-010
1.70803e-008
-2.32114e-010
2.46955e-010
1.69103e-008
-2.58432e-010
2.0979e-010
1.67678e-008
-2.74624e-010
1.8312e-010
1.66447e-008
-2.82446e-010
1.64272e-010
1.65352e-008
-2.8365e-010
1.51049e-010
1.64352e-008
-2.79859e-010
1.41735e-010
1.63419e-008
-2.72463e-010
1.35076e-010
1.62533e-008
-2.62612e-010
1.3019e-010
1.61681e-008
-2.51216e-010
1.26464e-010
1.60855e-008
-2.38983e-010
1.23476e-010
1.6005e-008
-2.2644e-010
1.20918e-010
1.59264e-008
-2.13967e-010
1.18595e-010
1.58496e-008
-2.01838e-010
1.16383e-010
1.57743e-008
-1.90231e-010
1.14205e-010
1.57008e-008
-1.79259e-010
1.12011e-010
1.5629e-008
-1.68979e-010
1.09785e-010
1.55588e-008
-1.59413e-010
1.0753e-010
1.54904e-008
-1.50553e-010
1.05258e-010
1.54238e-008
-1.42372e-010
1.02982e-010
1.53588e-008
-1.34835e-010
1.00718e-010
1.52956e-008
-1.27897e-010
9.84862e-011
1.52341e-008
-1.21513e-010
9.62903e-011
1.51742e-008
-1.15632e-010
9.41308e-011
1.5116e-008
-1.10209e-010
9.2011e-011
1.50593e-008
-1.05196e-010
8.99416e-011
1.50042e-008
-1.00555e-010
8.79252e-011
1.49506e-008
-9.62461e-011
8.59661e-011
1.48984e-008
-9.22368e-011
8.40648e-011
1.48475e-008
-8.84939e-011
8.22245e-011
1.4798e-008
-8.49935e-011
8.04413e-011
1.47497e-008
-8.17083e-011
7.87125e-011
1.47027e-008
-7.86192e-011
7.70361e-011
1.46568e-008
-7.57048e-011
7.54142e-011
1.46121e-008
-7.29514e-011
7.38447e-011
1.45684e-008
-7.03422e-011
7.23256e-011
1.45258e-008
-6.78671e-011
7.0854e-011
1.44841e-008
-6.55125e-011
6.94285e-011
1.44434e-008
-6.32707e-011
6.80431e-011
1.44037e-008
-6.11285e-011
6.66923e-011
1.43648e-008
-5.90783e-011
6.53724e-011
1.43268e-008
-5.71081e-011
6.40852e-011
1.42897e-008
-5.52131e-011
6.28316e-011
1.42533e-008
-5.33839e-011
6.16141e-011
1.42178e-008
-5.16195e-011
6.04335e-011
1.4183e-008
-4.99139e-011
5.92919e-011
1.4149e-008
-4.82686e-011
5.81859e-011
1.41156e-008
-4.66765e-011
5.71109e-011
1.40829e-008
-4.51374e-011
5.6062e-011
1.40509e-008
-4.36438e-011
5.50386e-011
1.40195e-008
-4.21957e-011
5.40404e-011
1.39887e-008
-4.07857e-011
5.3068e-011
1.39585e-008
-3.94146e-011
5.21214e-011
1.39288e-008
-3.80773e-011
5.12024e-011
1.38997e-008
-3.67759e-011
5.031e-011
1.38711e-008
-3.5505e-011
4.94422e-011
1.3843e-008
-3.42661e-011
4.85965e-011
1.38154e-008
-3.30538e-011
4.77721e-011
1.37882e-008
-3.18689e-011
4.69689e-011
1.37615e-008
-3.07047e-011
4.61857e-011
1.37352e-008
-2.95618e-011
4.54212e-011
1.37093e-008
-2.84352e-011
4.46752e-011
1.36838e-008
-2.73267e-011
4.39488e-011
1.36587e-008
-2.62317e-011
4.32402e-011
1.36339e-008
-2.51529e-011
4.25485e-011
1.36095e-008
-2.40881e-011
4.18739e-011
1.35855e-008
-2.30421e-011
4.12196e-011
1.35617e-008
-2.20145e-011
4.05854e-011
1.35383e-008
-2.10116e-011
3.99718e-011
1.35151e-008
-2.00344e-011
3.93775e-011
1.34921e-008
-1.90887e-011
3.88034e-011
1.34695e-008
-1.8173e-011
3.82443e-011
1.3447e-008
-1.72904e-011
3.76967e-011
1.34248e-008
-1.64387e-011
3.71579e-011
1.34028e-008
-1.562e-011
3.66326e-011
1.33811e-008
-1.48323e-011
3.61246e-011
1.33595e-008
-1.40748e-011
3.56404e-011
1.33382e-008
-1.33553e-011
3.52048e-011
1.33169e-008
-1.26381e-011
3.48032e-011
1.32957e-008
-1.1989e-011
3.45965e-011
1.32746e-008
-1.11303e-011
3.40628e-011
1.32526e-008
-1.05376e-011
3.47568e-011
1.3236e-008
-8.80082e-012
2.8708e-011
-7.40645e-012
3.8643e-011
5.0842e-008
1.08459e-010
3.57604e-009
4.64918e-008
3.14671e-010
4.53225e-009
4.22616e-008
4.6502e-010
4.46795e-009
3.83359e-008
5.47163e-010
4.17139e-009
3.47959e-008
5.735e-010
3.77549e-009
3.17095e-008
5.60181e-010
3.30061e-009
2.90949e-008
5.17519e-010
2.79844e-009
2.69278e-008
4.54261e-010
2.31862e-009
2.51645e-008
3.78552e-010
1.88558e-009
2.37536e-008
2.96076e-010
1.50808e-009
2.26397e-008
2.10488e-010
1.18951e-009
2.17677e-008
1.25052e-010
9.2924e-010
2.10878e-008
4.3184e-011
7.21823e-010
2.05582e-008
-3.2077e-011
5.58995e-010
2.01453e-008
-9.85615e-011
4.32296e-010
1.98224e-008
-1.54779e-010
3.34546e-010
1.95682e-008
-2.00021e-010
2.60319e-010
1.93653e-008
-2.34304e-010
2.05168e-010
1.91997e-008
-2.58286e-010
1.65293e-010
1.90607e-008
-2.73117e-010
1.37214e-010
1.89402e-008
-2.80221e-010
1.17916e-010
1.88323e-008
-2.81106e-010
1.04846e-010
1.87331e-008
-2.77205e-010
9.60285e-011
1.86399e-008
-2.69797e-010
9.00283e-011
1.85511e-008
-2.59972e-010
8.58639e-011
1.84654e-008
-2.48623e-010
8.288e-011
1.83821e-008
-2.36451e-010
8.06135e-011
1.83009e-008
-2.23989e-010
7.87891e-011
1.82215e-008
-2.11625e-010
7.7194e-011
1.81438e-008
-1.9963e-010
7.57117e-011
1.80678e-008
-1.88184e-010
7.42454e-011
1.79935e-008
-1.77395e-010
7.27595e-011
1.7921e-008
-1.67318e-010
7.12293e-011
1.78502e-008
-1.57969e-010
6.96651e-011
1.77812e-008
-1.49337e-010
6.80748e-011
1.7714e-008
-1.41393e-010
6.64728e-011
1.76486e-008
-1.34096e-010
6.48739e-011
1.75849e-008
-1.27399e-010
6.32909e-011
1.7523e-008
-1.21251e-010
6.17344e-011
1.74628e-008
-1.15602e-010
6.02109e-011
1.74043e-008
-1.10404e-010
5.87308e-011
1.73474e-008
-1.05612e-010
5.73019e-011
1.72921e-008
-1.01184e-010
5.59285e-011
1.72383e-008
-9.70828e-011
5.46127e-011
1.7186e-008
-9.32732e-011
5.33533e-011
1.7135e-008
-8.97265e-011
5.21527e-011
1.70854e-008
-8.64149e-011
5.10045e-011
1.70371e-008
-8.33158e-011
4.99083e-011
1.69901e-008
-8.04065e-011
4.88579e-011
1.69442e-008
-7.76703e-011
4.78583e-011
1.68995e-008
-7.50902e-011
4.69023e-011
1.68559e-008
-7.26534e-011
4.59918e-011
1.68133e-008
-7.03458e-011
4.51185e-011
1.67717e-008
-6.81575e-011
4.42847e-011
1.67311e-008
-6.60762e-011
4.34797e-011
1.66914e-008
-6.40926e-011
4.27025e-011
1.66527e-008
-6.21945e-011
4.19458e-011
1.66148e-008
-6.03748e-011
4.12148e-011
1.65778e-008
-5.86238e-011
4.05066e-011
1.65416e-008
-5.69373e-011
3.98257e-011
1.65062e-008
-5.53088e-011
3.91697e-011
1.64716e-008
-5.37374e-011
3.85416e-011
1.64377e-008
-5.22177e-011
3.79356e-011
1.64045e-008
-5.07479e-011
3.73491e-011
1.63719e-008
-4.93213e-011
3.67763e-011
1.63401e-008
-4.79367e-011
3.62185e-011
1.63089e-008
-4.65877e-011
3.5675e-011
1.62783e-008
-4.52738e-011
3.51474e-011
1.62483e-008
-4.39895e-011
3.46357e-011
1.62188e-008
-4.27364e-011
3.41415e-011
1.61899e-008
-4.15099e-011
3.3664e-011
1.61616e-008
-4.03109e-011
3.32003e-011
1.61337e-008
-3.91341e-011
3.27486e-011
1.61064e-008
-3.79806e-011
3.23083e-011
1.60795e-008
-3.68447e-011
3.1881e-011
1.6053e-008
-3.57265e-011
3.14651e-011
1.6027e-008
-3.46205e-011
3.1061e-011
1.60014e-008
-3.35283e-011
3.06674e-011
1.59762e-008
-3.24455e-011
3.02866e-011
1.59514e-008
-3.13741e-011
2.99156e-011
1.5927e-008
-3.03109e-011
2.95551e-011
1.5903e-008
-2.92605e-011
2.92038e-011
1.58793e-008
-2.8222e-011
2.88666e-011
1.58559e-008
-2.72017e-011
2.85413e-011
1.58328e-008
-2.62003e-011
2.82295e-011
1.58101e-008
-2.52251e-011
2.79285e-011
1.57876e-008
-2.42762e-011
2.76412e-011
1.57654e-008
-2.33588e-011
2.73613e-011
1.57435e-008
-2.24715e-011
2.70885e-011
1.57218e-008
-2.16191e-011
2.68198e-011
1.57003e-008
-2.0801e-011
2.65639e-011
1.56791e-008
-2.00243e-011
2.63237e-011
1.56582e-008
-1.92896e-011
2.61147e-011
1.56374e-008
-1.86104e-011
2.59527e-011
1.56168e-008
-1.79714e-011
2.58799e-011
1.55961e-008
-1.74038e-011
2.59612e-011
1.55756e-008
-1.67856e-011
2.6114e-011
1.55542e-008
-1.62779e-011
2.69379e-011
1.55374e-008
-1.54301e-011
2.33318e-011
-1.45575e-011
3.18995e-011
5.74115e-008
5.64962e-011
4.04849e-009
5.24312e-008
1.53977e-010
5.14053e-009
4.75753e-008
2.3957e-010
5.08105e-009
4.30663e-008
2.98454e-010
4.75797e-009
3.89961e-008
3.23026e-010
4.32099e-009
3.54465e-008
3.19677e-010
3.79041e-009
3.24471e-008
2.96239e-010
3.22055e-009
2.9976e-008
2.5745e-010
2.66741e-009
2.79842e-008
2.07139e-010
2.1625e-009
2.64103e-008
1.4908e-010
1.72012e-009
2.51867e-008
8.65876e-011
1.34707e-009
2.42452e-008
2.24907e-011
1.04391e-009
2.35245e-008
-4.04888e-011
8.04634e-010
2.29732e-008
-9.96498e-011
6.19246e-010
2.25506e-008
-1.52666e-010
4.77136e-010
2.22248e-008
-1.9789e-010
3.69307e-010
2.19705e-008
-2.34432e-010
2.8883e-010
2.17681e-008
-2.62095e-010
2.30149e-010
2.16022e-008
-2.8127e-010
1.88656e-010
2.14613e-008
-2.92776e-010
1.60221e-010
2.13369e-008
-2.97708e-010
1.41296e-010
2.12236e-008
-2.97261e-010
1.28966e-010
2.11175e-008
-2.92612e-010
1.20971e-010
2.10163e-008
-2.84833e-010
1.15722e-010
2.09188e-008
-2.74859e-010
1.12059e-010
2.08241e-008
-2.63473e-010
1.09287e-010
2.0732e-008
-2.51312e-010
1.06932e-010
2.06422e-008
-2.38864e-010
1.04746e-010
2.05547e-008
-2.26496e-010
1.02581e-010
2.04694e-008
-2.14461e-010
1.00354e-010
2.03865e-008
-2.02932e-010
9.80374e-011
2.03059e-008
-1.92012e-010
9.56033e-011
2.02276e-008
-1.81755e-010
9.3085e-011
2.01517e-008
-1.72178e-010
9.04871e-011
2.00781e-008
-1.63273e-010
8.78563e-011
2.00068e-008
-1.55015e-010
8.52017e-011
1.99377e-008
-1.47369e-010
8.25586e-011
1.98708e-008
-1.40292e-010
7.99429e-011
1.9806e-008
-1.33739e-010
7.73727e-011
1.97433e-008
-1.27666e-010
7.48653e-011
1.96825e-008
-1.22029e-010
7.24252e-011
1.96236e-008
-1.16789e-010
7.0073e-011
1.95665e-008
-1.1191e-010
6.7803e-011
1.95111e-008
-1.07358e-010
6.56324e-011
1.94574e-008
-1.03103e-010
6.35494e-011
1.94052e-008
-9.91195e-011
6.15674e-011
1.93545e-008
-9.5384e-011
5.96686e-011
1.93052e-008
-9.18752e-011
5.78619e-011
1.92573e-008
-8.85731e-011
5.61329e-011
1.92106e-008
-8.54617e-011
5.44917e-011
1.91652e-008
-8.25257e-011
5.29245e-011
1.91209e-008
-7.97522e-011
5.14379e-011
1.90778e-008
-7.71281e-011
5.00183e-011
1.90357e-008
-7.46426e-011
4.86724e-011
1.89946e-008
-7.22837e-011
4.73831e-011
1.89545e-008
-7.00407e-011
4.61553e-011
1.89153e-008
-6.79024e-011
4.4974e-011
1.8877e-008
-6.58603e-011
4.38515e-011
1.88396e-008
-6.39054e-011
4.27741e-011
1.8803e-008
-6.20315e-011
4.17551e-011
1.87673e-008
-6.0232e-011
4.07781e-011
1.87323e-008
-5.85034e-011
3.98567e-011
1.8698e-008
-5.68398e-011
3.89703e-011
1.86645e-008
-5.5237e-011
3.81309e-011
1.86316e-008
-5.36884e-011
3.73171e-011
1.85994e-008
-5.2191e-011
3.65456e-011
1.85678e-008
-5.07389e-011
3.57983e-011
1.85368e-008
-4.93297e-011
3.50931e-011
1.85065e-008
-4.79587e-011
3.44112e-011
1.84766e-008
-4.66253e-011
3.37699e-011
1.84473e-008
-4.53252e-011
3.315e-011
1.84186e-008
-4.40571e-011
3.25657e-011
1.83903e-008
-4.28162e-011
3.19974e-011
1.83624e-008
-4.16017e-011
3.14614e-011
1.83351e-008
-4.04086e-011
3.0941e-011
1.83081e-008
-3.92358e-011
3.04514e-011
1.82816e-008
-3.80787e-011
2.99751e-011
1.82555e-008
-3.69377e-011
2.95275e-011
1.82297e-008
-3.58092e-011
2.9093e-011
1.82043e-008
-3.4694e-011
2.86847e-011
1.81793e-008
-3.35899e-011
2.82855e-011
1.81546e-008
-3.25004e-011
2.79101e-011
1.81303e-008
-3.14255e-011
2.75462e-011
1.81062e-008
-3.03701e-011
2.72074e-011
1.80824e-008
-2.93362e-011
2.68786e-011
1.8059e-008
-2.83297e-011
2.65723e-011
1.80357e-008
-2.7352e-011
2.62752e-011
1.80127e-008
-2.64079e-011
2.59973e-011
1.799e-008
-2.54986e-011
2.57237e-011
1.79675e-008
-2.46303e-011
2.54685e-011
1.79452e-008
-2.38068e-011
2.52261e-011
1.79232e-008
-2.30377e-011
2.50149e-011
1.79013e-008
-2.23345e-011
2.48386e-011
1.78796e-008
-2.17087e-011
2.47247e-011
1.7858e-008
-2.11949e-011
2.47363e-011
1.78364e-008
-2.07605e-011
2.48995e-011
1.78148e-008
-2.05864e-011
2.53924e-011
1.77924e-008
-2.02668e-011
2.62606e-011
1.7774e-008
-2.08929e-011
2.37635e-011
-2.00681e-011
3.18759e-011
6.4838e-008
1.98087e-011
4.57934e-009
5.91743e-008
4.75795e-012
5.81237e-009
5.36439e-008
3.35422e-011
5.73618e-009
4.85211e-008
6.42672e-011
5.35716e-009
4.39132e-008
8.06368e-011
4.85052e-009
3.99059e-008
8.58894e-011
4.24124e-009
3.65299e-008
8.40899e-011
3.58799e-009
3.37601e-008
7.50445e-011
2.9516e-009
3.15407e-008
5.76863e-011
2.36818e-009
2.98006e-008
3.22684e-011
1.85635e-009
2.8461e-008
-1.52317e-014
1.42588e-009
2.74424e-008
-3.74619e-011
1.07858e-009
2.66723e-008
-7.78208e-011
8.07822e-010
2.609e-008
-1.18535e-010
6.01544e-010
2.56482e-008
-1.57087e-010
4.4665e-010
2.53101e-008
-1.91411e-010
3.31849e-010
2.50472e-008
-2.20126e-010
2.48511e-010
2.48376e-008
-2.42543e-010
1.89778e-010
2.46644e-008
-2.58584e-010
1.501e-010
2.45151e-008
-2.68623e-010
1.24643e-010
2.43808e-008
-2.73373e-010
1.09309e-010
2.42559e-008
-2.73687e-010
1.00818e-010
2.41366e-008
-2.70433e-010
9.6571e-011
2.4021e-008
-2.6443e-010
9.48164e-011
2.3908e-008
-2.56428e-010
9.42846e-011
2.37972e-008
-2.47084e-010
9.42804e-011
2.36886e-008
-2.36955e-010
9.43457e-011
2.35821e-008
-2.26483e-010
9.42657e-011
2.34779e-008
-2.15995e-010
9.3951e-011
2.33761e-008
-2.05724e-010
9.33447e-011
2.32769e-008
-1.95823e-010
9.24886e-011
2.31802e-008
-1.86387e-010
9.13624e-011
2.30863e-008
-1.77468e-010
9.00493e-011
2.29949e-008
-1.69084e-010
8.85513e-011
2.29062e-008
-1.61234e-010
8.69433e-011
2.28201e-008
-1.539e-010
8.52338e-011
2.27364e-008
-1.47056e-010
8.34669e-011
2.26553e-008
-1.40669e-010
8.16645e-011
2.25765e-008