/*--------------------------------*- C++ -*----------------------------------*\
| =========                 |                                                 |
| \\      /  F ield         | OpenFOAM: The Open Source CFD Toolbox           |
|  \\    /   O peration     | Version:  5.x                                   |
|   \\  /    A nd           | Web:      www.OpenFOAM.org                      |
|    \\/     M anipulation  |                                                 |
\*---------------------------------------------------------------------------*/
/*   Windows 32 and 64 bit porting by blueCAPE: http://www.bluecape.com.pt   *\
|  Based on Windows porting (2.0.x v4) by Symscape: http://www.symscape.com   |
\*---------------------------------------------------------------------------*/
FoamFile
{
    version     2.0;
    format      ascii;
    class       volVectorField;
    location    "30";
    object      U;
}
// * * * * * * * * * * * * * * * * * * * * * * * * * * * * * * * * * * * * * //

dimensions      [0 1 -1 0 0 0 0];

internalField   nonuniform List<vector> 
10000
(
(9.21816 0.142634 0.14263)
(7.91794 0.263382 0.263374)
(6.54733 0.261081 0.261075)
(5.18078 0.207002 0.207011)
(4.06795 0.139739 0.13976)
(3.28153 0.0809766 0.0809866)
(2.73995 0.0418879 0.0418759)
(2.35195 0.0218074 0.0217851)
(2.0634 0.0136522 0.0136365)
(1.84109 0.010839 0.0108345)
(1.66261 0.00966674 0.00966816)
(1.51583 0.00857877 0.00858032)
(1.3957 0.00714665 0.00714677)
(1.29955 0.0055011 0.00550124)
(1.22442 0.00394634 0.00394817)
(1.16685 0.0027049 0.00270887)
(1.12327 0.00183969 0.00184509)
(1.09046 0.00129487 0.00130042)
(1.06571 0.00097235 0.0009769)
(1.04687 0.000782889 0.00078576)
(1.03229 0.000667276 0.000668474)
(1.02074 0.00059299 0.000593055)
(1.0113 0.000542774 0.000542598)
(1.0033 0.000508114 0.000508558)
(0.996264 0.000483167 0.000484813)
(0.989835 0.000464811 0.000467796)
(0.983781 0.000449272 0.000453448)
(0.977943 0.000434988 0.000439997)
(0.972224 0.000420391 0.000425783)
(0.966565 0.000406008 0.000411242)
(0.960934 0.000391404 0.000396028)
(0.955317 0.000377148 0.000380805)
(0.94971 0.000363142 0.000365664)
(0.944116 0.00035021 0.000351524)
(0.938542 0.000338168 0.000338347)
(0.932996 0.000327252 0.000326432)
(0.927489 0.000317106 0.000315521)
(0.922031 0.000308068 0.000305939)
(0.916632 0.000299583 0.000297188)
(0.911301 0.000291863 0.000289428)
(0.906045 0.000284505 0.000282223)
(0.900871 0.000278035 0.000275972)
(0.895781 0.000271814 0.000270042)
(0.89078 0.000266144 0.000264681)
(0.885871 0.000260542 0.000259405)
(0.881053 0.000255657 0.000254779)
(0.876328 0.000250789 0.000250167)
(0.871694 0.000246282 0.000245929)
(0.867154 0.000241651 0.000241614)
(0.862704 0.000237652 0.000237893)
(0.858344 0.000233666 0.00023418)
(0.85407 0.000230099 0.00023085)
(0.849881 0.00022641 0.00022737)
(0.845774 0.000223226 0.000224279)
(0.841747 0.000219795 0.000220881)
(0.837797 0.000216434 0.000217494)
(0.833925 0.000212654 0.000213663)
(0.830132 0.000209222 0.000210083)
(0.826415 0.000205679 0.000206338)
(0.822774 0.000202571 0.00020297)
(0.819208 0.00019947 0.000199587)
(0.815712 0.00019697 0.000196737)
(0.812282 0.000194326 0.000193769)
(0.808914 0.000191804 0.000191006)
(0.805609 0.00018885 0.000187945)
(0.802363 0.000186126 0.000185179)
(0.799177 0.00018314 0.000182233)
(0.796048 0.000180396 0.000179587)
(0.792975 0.000177466 0.000176813)
(0.789955 0.00017494 0.000174435)
(0.786986 0.000172239 0.000171917)
(0.784065 0.000169723 0.000169639)
(0.78119 0.000166936 0.000167155)
(0.77836 0.000164427 0.000164926)
(0.775572 0.000161737 0.000162471)
(0.772826 0.000159244 0.000160143)
(0.77012 0.000156562 0.000157554)
(0.767455 0.000154171 0.000155145)
(0.764828 0.000151653 0.000152552)
(0.762238 0.000149323 0.000150154)
(0.759688 0.000146834 0.00014766)
(0.757174 0.000144626 0.000145492)
(0.754698 0.000142406 0.000143367)
(0.752257 0.000140499 0.000141595)
(0.74985 0.000138569 0.000139819)
(0.747473 0.000136873 0.000138225)
(0.745124 0.000135011 0.000136402)
(0.742802 0.000133142 0.000134531)
(0.740506 0.000130948 0.000132312)
(0.738239 0.000128769 0.000130061)
(0.736002 0.000126386 0.000127557)
(0.733794 0.000124355 0.000125373)
(0.731621 0.000121863 0.000122709)
(0.72947 0.000121482 0.000122122)
(0.727371 0.000116501 0.000116908)
(0.725226 0.000126004 0.000126133)
(0.723293 9.14433e-005 9.13031e-005)
(0.720921 0.000161897 0.000161819)
(0.719922 -9.87611e-005 -9.86491e-005)
(0.717396 0.000271934 0.000272344)
(9.75155 0.213998 0.152393)
(9.3755 0.410499 0.308884)
(8.77824 0.446245 0.344182)
(7.95942 0.420714 0.319127)
(7.09232 0.365967 0.26593)
(6.28637 0.295666 0.203812)
(5.57056 0.226025 0.146828)
(4.95031 0.168382 0.101983)
(4.42803 0.125438 0.0697543)
(3.99871 0.0948002 0.0475389)
(3.64961 0.0729176 0.0324377)
(3.36602 0.0567576 0.0222411)
(3.13547 0.0441887 0.0154139)
(2.94826 0.0339752 0.0108955)
(2.79667 0.0255494 0.00795566)
(2.67418 0.0186945 0.00609793)
(2.57517 0.0133037 0.00497912)
(2.49489 0.00924352 0.00435339)
(2.42935 0.00631346 0.00403343)
(2.37538 0.00428312 0.00388339)
(2.33046 0.00293769 0.00380557)
(2.29259 0.0020983 0.00373608)
(2.2602 0.00162463 0.00363818)
(2.23206 0.00141037 0.00349746)
(2.20721 0.00137457 0.00331319)
(2.1849 0.0014575 0.00309489)
(2.16456 0.00161225 0.00285364)
(2.14575 0.0018045 0.00260238)
(2.12814 0.00200874 0.00235104)
(2.1115 0.00220856 0.0021095)
(2.09564 0.00239299 0.00188303)
(2.08042 0.00255551 0.00167578)
(2.06575 0.00269331 0.0014888)
(2.05155 0.00280536 0.00132359)
(2.03777 0.00289208 0.00117907)
(2.02437 0.00295463 0.00105456)
(2.01132 0.00299537 0.000947799)
(1.99861 0.00301681 0.000857529)
(1.98621 0.00302162 0.000781139)
(1.97412 0.00301238 0.000716898)
(1.96233 0.0029914 0.000662226)
(1.95083 0.0029612 0.000616165)
(1.93961 0.00292338 0.000576829)
(1.92867 0.00287968 0.00054356)
(1.918 0.0028312 0.000514844)
(1.90758 0.00277976 0.000490736)
(1.89742 0.00272587 0.000470039)
(1.88751 0.00267049 0.000452627)
(1.87784 0.00261387 0.000437358)
(1.8684 0.00255732 0.000424634)
(1.85919 0.00250095 0.000413639)
(1.8502 0.00244539 0.000404618)
(1.84141 0.00239046 0.000396656)
(1.83283 0.00233692 0.000390099)
(1.82444 0.00228426 0.000383947)
(1.81624 0.0022327 0.000378134)
(1.80823 0.0021818 0.000371669)
(1.80039 0.00213245 0.000365037)
(1.79273 0.00208445 0.000358012)
(1.78523 0.00203851 0.000351478)
(1.77791 0.00199429 0.000345399)
(1.77074 0.00195248 0.000340519)
(1.76372 0.00191222 0.000336354)
(1.75684 0.00187355 0.00033292)
(1.7501 0.00183566 0.00032922)
(1.74349 0.00179921 0.000325208)
(1.73701 0.00176362 0.000320384)
(1.73066 0.0017295 0.000315341)
(1.72442 0.00169637 0.000310048)
(1.7183 0.00166498 0.000305182)
(1.71229 0.00163456 0.000300604)
(1.70638 0.00160541 0.000296664)
(1.70058 0.00157679 0.000292842)
(1.69486 0.00154941 0.000289195)
(1.68924 0.00152266 0.000285331)
(1.6837 0.00149706 0.000281499)
(1.67825 0.00147206 0.000277349)
(1.67287 0.00144836 0.000273007)
(1.66758 0.00142536 0.000268337)
(1.66236 0.00140344 0.000263752)
(1.65721 0.00138198 0.000259187)
(1.65214 0.00136162 0.000254825)
(1.64714 0.0013418 0.000250665)
(1.6422 0.00132304 0.000247039)
(1.63732 0.00130473 0.000243822)
(1.63251 0.0012873 0.000240953)
(1.62775 0.00126996 0.000238266)
(1.62304 0.0012529 0.000235791)
(1.61839 0.00123539 0.000233121)
(1.61378 0.00121795 0.000229975)
(1.60923 0.00120014 0.000226155)
(1.60473 0.00118292 0.000222299)
(1.60028 0.00116563 0.000217729)
(1.59588 0.00115138 0.000215753)
(1.59156 0.00113367 0.0002083)
(1.58718 0.00113282 0.000221251)
(1.58311 0.00107664 0.000176083)
(1.57835 0.00114452 0.000280695)
(1.5757 0.000694908 -0.000197346)
(1.56979 0.00113122 0.000495719)
(9.61212 0.105481 0.149869)
(9.02211 0.214533 0.295663)
(8.42044 0.249363 0.320775)
(7.76615 0.262462 0.295473)
(7.13199 0.261064 0.25203)
(6.55226 0.240996 0.202052)
(6.02052 0.208594 0.153223)
(5.53328 0.173224 0.110691)
(5.09793 0.139952 0.0761981)
(4.72089 0.110172 0.0493969)
(4.40171 0.084096 0.0293475)
(4.13514 0.0617375 0.0150703)
(3.9144 0.0429639 0.0055569)
(3.73278 0.0275114 -0.000236411)
(3.58402 0.0150799 -0.00330858)
(3.4622 0.00537298 -0.00451871)
(3.362 -0.00193399 -0.0045463)
(3.27901 -0.00719823 -0.00388497)
(3.20959 -0.0107731 -0.00287151)
(3.15074 -0.0129998 -0.00172592)
(3.10013 -0.0141822 -0.000589474)
(3.05592 -0.0145796 0.000451252)
(3.01675 -0.0144049 0.0013463)
(2.98156 -0.0138275 0.00207426)
(2.94956 -0.0129797 0.00263272)
(2.92014 -0.011962 0.00303479)
(2.89284 -0.0108525 0.00329965)
(2.86731 -0.00970915 0.00345157)
(2.84328 -0.00857515 0.00351342)
(2.82053 -0.00748016 0.00350857)
(2.79892 -0.00644453 0.0034549)
(2.7783 -0.00548109 0.00336812)
(2.75858 -0.00459644 0.00325883)
(2.73968 -0.00379298 0.00313719)
(2.72153 -0.00307014 0.00300974)
(2.70405 -0.00242508 0.00288232)
(2.6872 -0.00185297 0.00275733)
(2.67093 -0.00134828 0.00263747)
(2.6552 -0.000905051 0.00252284)
(2.63997 -0.000517059 0.00241387)
(2.62523 -0.000178179 0.00230921)
(2.61093 0.000117591 0.00220915)
(2.59707 0.000375365 0.00211287)
(2.5836 0.000599935 0.00202083)
(2.57053 0.000795453 0.00193246)
(2.55782 0.000965973 0.00184872)
(2.54546 0.00111448 0.00176924)
(2.53343 0.0012438 0.00169451)
(2.52173 0.00135629 0.00162373)
(2.51033 0.0014545 0.00155753)
(2.49922 0.00154017 0.00149536)
(2.4884 0.00161496 0.00143761)
(2.47784 0.00168003 0.00138342)
(2.46754 0.0017367 0.00133308)
(2.45748 0.00178562 0.00128552)
(2.44766 0.00182771 0.00124043)
(2.43806 0.00186374 0.00119647)
(2.42869 0.00189504 0.00115379)
(2.41952 0.00192241 0.0011121)
(2.41057 0.00194681 0.00107239)
(2.40182 0.00196868 0.00103493)
(2.39325 0.00198848 0.00100074)
(2.38487 0.00200585 0.000969607)
(2.37666 0.00202072 0.000941448)
(2.36862 0.00203299 0.000914845)
(2.36073 0.00204319 0.000889062)
(2.35301 0.0020515 0.000863103)
(2.34543 0.00205847 0.000837199)
(2.33799 0.00206427 0.000811329)
(2.33069 0.00206929 0.000786393)
(2.32352 0.00207326 0.000762699)
(2.31648 0.00207621 0.000740774)
(2.30955 0.00207794 0.000720107)
(2.30274 0.00207879 0.000700602)
(2.29604 0.00207879 0.000681818)
(2.28944 0.00207837 0.000663802)
(2.28293 0.00207761 0.000646059)
(2.27652 0.00207691 0.000628595)
(2.27021 0.00207616 0.000611308)
(2.26397 0.00207555 0.000594492)
(2.25783 0.00207494 0.000578024)
(2.25176 0.00207447 0.000562032)
(2.24577 0.00207387 0.000546596)
(2.23986 0.00207314 0.000532026)
(2.23401 0.00207181 0.000518313)
(2.22824 0.00206963 0.000505619)
(2.22252 0.00206606 0.000494113)
(2.21686 0.00206101 0.000483773)
(2.21126 0.00205425 0.000473917)
(2.20571 0.00204598 0.000463873)
(2.20021 0.00203641 0.000453174)
(2.19477 0.00202626 0.00044215)
(2.18939 0.00201594 0.000430343)
(2.18404 0.00200704 0.000421218)
(2.17878 0.00199716 0.000408276)
(2.17345 0.00199676 0.000416697)
(2.16846 0.00196203 0.000363104)
(2.16259 0.0020018 0.000474866)
(2.15939 0.00168874 -0.000191686)
(2.15145 0.00194952 0.000805775)
(9.60247 0.0605043 0.149754)
(8.94953 0.15065 0.296608)
(8.27288 0.197325 0.321711)
(7.55528 0.215935 0.296023)
(6.88024 0.216721 0.25216)
(6.29301 0.20287 0.201129)
(5.78805 0.179556 0.150614)
(5.3513 0.152809 0.106478)
(4.9771 0.125984 0.0709605)
(4.66243 0.100084 0.0436673)
(4.40171 0.0755172 0.0233563)
(4.18739 0.0528023 0.00881209)
(4.01208 0.0324422 -0.00104575)
(3.86941 0.0147668 -0.00722577)
(3.75388 -6.34559e-005 -0.0106728)
(3.66071 -0.0120368 -0.0122037)
(3.58569 -0.021288 -0.0124558)
(3.52486 -0.028074 -0.011887)
(3.47484 -0.0327162 -0.010821)
(3.43287 -0.0355619 -0.00948227)
(3.39681 -0.0369587 -0.00802788)
(3.36505 -0.0372325 -0.00656819)
(3.33645 -0.0366693 -0.00518027)
(3.31016 -0.0355088 -0.00391538)
(3.2856 -0.0339432 -0.00280276)
(3.26237 -0.0321232 -0.00185343)
(3.24019 -0.0301645 -0.00106536)
(3.21886 -0.0281539 -0.000426822)
(3.19827 -0.026155 7.92248e-005)
(3.17834 -0.024212 0.000473592)
(3.15901 -0.022355 0.000775432)
(3.14025 -0.0206027 0.001003)
(3.12205 -0.0189659 0.00117127)
(3.10437 -0.0174485 0.00129462)
(3.08721 -0.01605 0.00138408)
(3.07056 -0.0147662 0.00144892)
(3.05438 -0.0135915 0.00149485)
(3.03867 -0.0125185 0.00152643)
(3.02342 -0.0115396 0.00154637)
(3.0086 -0.010647 0.00155703)
(2.9942 -0.00983302 0.00155905)
(2.9802 -0.0090903 0.00155348)
(2.96659 -0.00841182 0.00154093)
(2.95336 -0.00779109 0.00152255)
(2.94049 -0.00722196 0.00149927)
(2.92797 -0.00669899 0.00147271)
(2.91579 -0.00621733 0.0014439)
(2.90393 -0.00577282 0.00141389)
(2.89238 -0.00536143 0.00138313)
(2.88112 -0.00497976 0.00135258)
(2.87016 -0.00462471 0.00132269)
(2.85948 -0.00429384 0.00129402)
(2.84906 -0.00398477 0.00126649)
(2.83889 -0.00369572 0.00124032)
(2.82897 -0.00342483 0.00121501)
(2.81929 -0.00317063 0.00119002)
(2.80984 -0.00293118 0.00116451)
(2.80061 -0.00270497 0.00113837)
(2.79159 -0.0024903 0.00111193)
(2.78278 -0.00228617 0.00108607)
(2.77418 -0.00209142 0.00106176)
(2.76577 -0.00190576 0.00103988)
(2.75754 -0.00172876 0.00102076)
(2.7495 -0.00156042 0.00100392)
(2.74162 -0.00139998 0.000988176)
(2.7339 -0.00124707 0.0009721)
(2.72634 -0.00110073 0.000954848)
(2.71894 -0.000960584 0.000936082)
(2.71168 -0.000825757 0.000916251)
(2.70456 -0.000696221 0.000896034)
(2.69757 -0.000571517 0.000876428)
(2.69072 -0.000451734 0.000857753)
(2.68398 -0.000336203 0.000840102)
(2.67736 -0.000224956 0.000823134)
(2.67085 -0.000117362 0.000806864)
(2.66445 -1.33251e-005 0.000790867)
(2.65814 8.79444e-005 0.000774987)
(2.65194 0.000186418 0.000758791)
(2.64582 0.000282639 0.000742508)
(2.63979 0.00037643 0.000726006)
(2.63385 0.000468267 0.000709554)
(2.62799 0.000557764 0.000692984)
(2.62221 0.000645124 0.000676825)
(2.6165 0.000729723 0.000661105)
(2.61086 0.000811481 0.000646283)
(2.60528 0.000889487 0.000632248)
(2.59977 0.00096363 0.000619535)
(2.59431 0.00103332 0.000607671)
(2.5889 0.00109886 0.000596224)
(2.58355 0.00116002 0.000584095)
(2.57824 0.00121752 0.000571128)
(2.57299 0.00127148 0.000557286)
(2.56778 0.00132326 0.000542833)
(2.56261 0.0013725 0.000530909)
(2.55752 0.00142265 0.000516849)
(2.55234 0.00146992 0.000523147)
(2.54749 0.00152394 0.000470955)
(2.54171 0.00157253 0.000582609)
(2.53869 0.00159283 -0.00012613)
(2.5306 0.00174033 0.000934664)
(9.59968 0.0406641 0.14984)
(8.92611 0.110325 0.298283)
(8.21795 0.152689 0.324763)
(7.47082 0.169696 0.298888)
(6.77062 0.170331 0.253544)
(6.16373 0.160112 0.200134)
(5.64846 0.142785 0.146809)
(5.21259 0.122002 0.100232)
(4.84895 0.100235 0.0632648)
(4.5518 0.078481 0.0355694)
(4.31286 0.0571491 0.0155659)
(4.12217 0.0367087 0.00164441)
(3.97031 0.0177279 -0.0075356)
(3.84951 0.00071299 -0.0131026)
(3.75369 -0.0139466 -0.0160398)
(3.67789 -0.0260618 -0.0171457)
(3.61789 -0.0356061 -0.0170338)
(3.57006 -0.0426887 -0.0161508)
(3.53135 -0.0475414 -0.0148103)
(3.49931 -0.0504763 -0.0132241)
(3.47202 -0.0518403 -0.0115377)
(3.44808 -0.0519741 -0.00985222)
(3.42646 -0.0511863 -0.00824041)
(3.40647 -0.0497398 -0.00675265)
(3.38762 -0.0478482 -0.00541983)
(3.3696 -0.0456806 -0.00425592)
(3.3522 -0.0433658 -0.00326137)
(3.33527 -0.0410001 -0.00242742)
(3.31875 -0.0386524 -0.00173843)
(3.3026 -0.036371 -0.00117444)
(3.2868 -0.0341879 -0.000715261)
(3.27134 -0.0321232 -0.000342288)
(3.25623 -0.0301874 -3.91819e-005)
(3.24147 -0.0283842 0.000208744)
(3.22708 -0.0267126 0.000413251)
(3.21304 -0.025168 0.000583816)
(3.19937 -0.023744 0.000727049)
(3.18605 -0.0224324 0.000848233)
(3.17309 -0.0212247 0.000949572)
(3.16047 -0.0201123 0.00103197)
(3.1482 -0.0190867 0.00109568)
(3.13626 -0.01814 0.00114211)
(3.12464 -0.0172646 0.00117264)
(3.11334 -0.0164533 0.0011895)
(3.10234 -0.0156996 0.00119461)
(3.09163 -0.0149977 0.00119056)
(3.0812 -0.0143424 0.00117932)
(3.07104 -0.0137289 0.00116287)
(3.06114 -0.013153 0.00114254)
(3.05149 -0.0126111 0.00111998)
(3.04207 -0.0120998 0.00109631)
(3.03289 -0.0116165 0.00107267)
(3.02392 -0.0111586 0.00104945)
(3.01516 -0.010724 0.00102713)
(3.00661 -0.0103107 0.00100539)
(2.99824 -0.00991686 0.000983979)
(2.99007 -0.00954035 0.000962241)
(2.98208 -0.00917949 0.000940315)
(2.97428 -0.00883265 0.000918515)
(2.96664 -0.0084987 0.000897902)
(2.95917 -0.00817669 0.000879266)
(2.95187 -0.00786627 0.000863515)
(2.94471 -0.00756699 0.000850681)
(2.93771 -0.00727835 0.000840333)
(2.93084 -0.00699952 0.000831034)
(2.92411 -0.00672991 0.000821536)
(2.91752 -0.00646868 0.00081075)
(2.91106 -0.00621527 0.000798537)
(2.90472 -0.00596898 0.000785056)
(2.8985 -0.00572964 0.000771181)
(2.89239 -0.00549688 0.000757671)
(2.8864 -0.00527047 0.000745248)
(2.8805 -0.0050498 0.000733893)
(2.87472 -0.00483465 0.000723469)
(2.86902 -0.00462451 0.000713647)
(2.86342 -0.00441898 0.000704248)
(2.85791 -0.0042174 0.000694839)
(2.85249 -0.00401957 0.000685221)
(2.84715 -0.00382509 0.000675321)
(2.84189 -0.00363387 0.000665255)
(2.83671 -0.0034456 0.000654994)
(2.8316 -0.00326056 0.00064463)
(2.82656 -0.00307884 0.000634403)
(2.82159 -0.00290101 0.000624597)
(2.81668 -0.0027275 0.000615345)
(2.81183 -0.00255916 0.000606755)
(2.80704 -0.00239636 0.00059899)
(2.8023 -0.00223948 0.00059184)
(2.79761 -0.00208841 0.000584643)
(2.79297 -0.00194324 0.000576674)
(2.78838 -0.00180355 0.000567697)
(2.78383 -0.00166943 0.000558072)
(2.77933 -0.00153977 0.000548346)
(2.77487 -0.00141623 0.000541275)
(2.77046 -0.0012918 0.000535259)
(2.766 -0.00117886 0.000545979)
(2.76177 -0.00103015 0.000522072)
(2.75678 -0.000928644 0.0006244)
(2.75407 -0.000653083 5.96735e-005)
(2.74694 -0.000393846 0.000946564)
(9.59768 0.0266096 0.149855)
(8.91036 0.072966 0.299067)
(8.18143 0.104525 0.326161)
(7.4164 0.120627 0.299991)
(6.70451 0.125477 0.253863)
(6.09023 0.122336 0.19954)
(5.57111 0.113085 0.145164)
(5.13535 0.0995949 0.0975161)
(4.77563 0.0836509 0.0597229)
(4.48547 0.0664797 0.0315829)
(4.25582 0.0488621 0.0114567)
(4.07592 0.0314607 -0.00239199)
(3.93549 0.014924 -0.0114061)
(3.82591 -0.000191736 -0.016758)
(3.74036 -0.0135033 -0.0194382)
(3.67355 -0.0247396 -0.0202579)
(3.6212 -0.0337703 -0.0198577)
(3.57978 -0.0406153 -0.0187168)
(3.5464 -0.0454261 -0.0171645)
(3.51879 -0.048446 -0.0154215)
(3.4952 -0.0499663 -0.0136299)
(3.47438 -0.0502871 -0.0118848)
(3.45546 -0.0496908 -0.0102495)
(3.43784 -0.0484262 -0.00876363)
(3.42115 -0.0467027 -0.00744748)
(3.40512 -0.04469 -0.0063045)
(3.38961 -0.0425206 -0.00532912)
(3.37449 -0.0402942 -0.00450548)
(3.35972 -0.0380827 -0.00381573)
(3.34528 -0.0359365 -0.00323863)
(3.33114 -0.0338889 -0.00275541)
(3.31732 -0.0319599 -0.00234784)
(3.30381 -0.0301597 -0.00200121)
(3.29063 -0.0284912 -0.00170241)
(3.27777 -0.0269524 -0.00144161)
(3.26524 -0.0255378 -0.00121147)
(3.25304 -0.0242402 -0.00100721)
(3.24117 -0.0230508 -0.00082594)
(3.22963 -0.0219607 -0.000666244)
(3.2184 -0.0209604 -0.000527686)
(3.20748 -0.0200409 -0.000409834)
(3.19686 -0.0191938 -0.000311769)
(3.18654 -0.0184115 -0.000232066)
(3.17651 -0.0176866 -0.00016876)
(3.16674 -0.017013 -0.00011982)
(3.15725 -0.016385 -8.26514e-005)
(3.148 -0.015798 -5.51539e-005)
(3.139 -0.0152474 -3.50767e-005)
(3.13023 -0.0147295 -2.09067e-005)
(3.12168 -0.0142409 -1.06811e-005)
(3.11335 -0.0137789 -3.16076e-006)
(3.10523 -0.0133409 3.12645e-006)
(3.0973 -0.0129249 8.70556e-006)
(3.08956 -0.0125289 1.42485e-005)
(3.082 -0.012151 1.95024e-005)
(3.07462 -0.0117893 2.44198e-005)
(3.06741 -0.0114421 2.84896e-005)
(3.06036 -0.0111077 3.19163e-005)
(3.05347 -0.0107849 3.49579e-005)
(3.04674 -0.0104727 3.84615e-005)
(3.04015 -0.0101703 4.30551e-005)
(3.03371 -0.00987729 4.93561e-005)
(3.02741 -0.00959341 5.73487e-005)
(3.02123 -0.00931796 6.65394e-005)
(3.01519 -0.00905028 7.57909e-005)
(3.00927 -0.00878973 8.40118e-005)
(3.00347 -0.0085357 9.04595e-005)
(2.99778 -0.00828761 9.49485e-005)
(2.99221 -0.00804504 9.77497e-005)
(2.98674 -0.00780777 9.94633e-005)
(2.98138 -0.00757559 0.000100882)
(2.97611 -0.0073482 0.000102473)
(2.97094 -0.00712526 0.000104419)
(2.96586 -0.00690645 0.000106562)
(2.96087 -0.00669128 0.000108905)
(2.95597 -0.00647926 0.000111199)
(2.95114 -0.00626988 0.000113273)
(2.9464 -0.0060629 0.00011478)
(2.94172 -0.00585804 0.000115835)
(2.93713 -0.00565517 0.000116346)
(2.9326 -0.00545418 0.000116461)
(2.92814 -0.00525538 0.000116057)
(2.92375 -0.00505912 0.000115558)
(2.91942 -0.00486601 0.000115023)
(2.91515 -0.00467671 0.000114754)
(2.91093 -0.00449207 0.000114636)
(2.90677 -0.00431262 0.000115024)
(2.90266 -0.00413874 0.000115586)
(2.8986 -0.00397053 0.00011605)
(2.89459 -0.00380825 0.000115727)
(2.89062 -0.00365199 0.000114849)
(2.8867 -0.00350224 0.000113597)
(2.88282 -0.0033589 0.000113182)
(2.87898 -0.0032241 0.000115026)
(2.87519 -0.00309259 0.000122009)
(2.87137 -0.00297428 0.000139932)
(2.86769 -0.00282863 0.000155454)
(2.86347 -0.00271874 0.000244005)
(2.86093 -0.00246184 -0.000118319)
(2.85502 -0.00219921 0.00054839)
(9.59636 0.0156365 0.149801)
(8.90133 0.0425743 0.299498)
(8.16039 0.0621312 0.32743)
(7.38222 0.0733091 0.302097)
(6.65808 0.0772132 0.25669)
(6.03285 0.0756255 0.202802)
(5.50478 0.0698495 0.148328)
(5.06328 0.0608173 0.100031)
(4.70175 0.0494298 0.0612939)
(4.41348 0.036541 0.0322201)
(4.1886 0.0228771 0.0113775)
(4.01536 0.00906647 -0.00287885)
(3.88255 -0.00430239 -0.0119877)
(3.78079 -0.0166981 -0.0171642)
(3.70275 -0.027696 -0.0194636)
(3.64272 -0.03701 -0.019786)
(3.59623 -0.0444937 -0.0188614)
(3.55966 -0.0501314 -0.0172418)
(3.53018 -0.0540189 -0.0153051)
(3.50557 -0.0563355 -0.0132944)
(3.48424 -0.0573115 -0.0113551)
(3.46505 -0.0571969 -0.00956705)
(3.44728 -0.0562355 -0.00797053)
(3.43045 -0.054648 -0.00657682)
(3.41431 -0.0526261 -0.00538572)
(3.39867 -0.0503287 -0.00438354)
(3.38347 -0.047883 -0.00355204)
(3.36867 -0.0453864 -0.00286681)
(3.35423 -0.0429107 -0.00230314)
(3.34017 -0.0405063 -0.00183767)
(3.32648 -0.038207 -0.00144957)
(3.31317 -0.036033 -0.00112283)
(3.30023 -0.0339952 -0.000843468)
(3.28768 -0.0320967 -0.000602262)
(3.27551 -0.0303361 -0.000391432)
(3.26372 -0.0287082 -0.00020708)
(3.25229 -0.0272059 -4.63484e-005)
(3.24122 -0.0258207 9.19299e-005)
(3.2305 -0.0245434 0.000208122)
(3.22012 -0.0233647 0.000302726)
(3.21007 -0.0222757 0.000375727)
(3.20032 -0.0212685 0.000428863)
(3.19088 -0.0203352 0.00046337)
(3.18173 -0.0194691 0.000482391)
(3.17285 -0.0186636 0.000487882)
(3.16423 -0.0179132 0.00048325)
(3.15585 -0.0172129 0.000470336)
(3.14771 -0.0165582 0.000452104)
(3.1398 -0.0159448 0.000429948)
(3.1321 -0.0153692 0.000406264)
(3.12461 -0.0148283 0.000382069)
(3.1173 -0.0143191 0.000359145)
(3.11019 -0.0138392 0.000337784)
(3.10325 -0.013386 0.000318889)
(3.09648 -0.0129573 0.000301842)
(3.08987 -0.0125507 0.00028686)
(3.08341 -0.0121641 0.000272988)
(3.07711 -0.0117955 0.000260711)
(3.07095 -0.0114433 0.000249544)
(3.06493 -0.0111061 0.000240522)
(3.05904 -0.0107828 0.000233239)
(3.05328 -0.0104726 0.000228532)
(3.04764 -0.0101744 0.000225462)
(3.04212 -0.00988751 0.000224265)
(3.03671 -0.00961056 0.000223264)
(3.03141 -0.00934295 0.000222429)
(3.02622 -0.0090836 0.000220419)
(3.02113 -0.00883201 0.000217911)
(3.01613 -0.00858731 0.000214211)
(3.01123 -0.00834941 0.000210486)
(3.00642 -0.00811755 0.000206411)
(3.00169 -0.0078915 0.000203138)
(2.99705 -0.00767039 0.000199973)
(2.99248 -0.00745406 0.000197608)
(2.98799 -0.0072416 0.000195231)
(2.98356 -0.00703275 0.00019347)
(2.97921 -0.00682668 0.000191409)
(2.97493 -0.00662342 0.000189581)
(2.9707 -0.00642231 0.000187265)
(2.96654 -0.0062235 0.000185115)
(2.96243 -0.00602655 0.000182379)
(2.95839 -0.00583208 0.000179687)
(2.95439 -0.00564011 0.000176611)
(2.95045 -0.00545157 0.000173989)
(2.94656 -0.00526679 0.0001713)
(2.94271 -0.00508689 0.000169189)
(2.93891 -0.0049121 0.000167182)
(2.93514 -0.00474324 0.000165753)
(2.93142 -0.00458034 0.000164041)
(2.92774 -0.00442433 0.000162378)
(2.92409 -0.00427557 0.000160432)
(2.92048 -0.00413552 0.000159116)
(2.91691 -0.0040054 0.000158991)
(2.91336 -0.00388742 0.000161341)
(2.90985 -0.00378347 0.000170665)
(2.90632 -0.00369289 0.000187372)
(2.90288 -0.00362191 0.000220089)
(2.899 -0.00354456 0.000293665)
(2.89653 -0.00352603 2.87296e-005)
(2.89096 -0.00335547 0.000567666)
(9.59518 0.00527624 0.149695)
(8.89526 0.0187333 0.299184)
(8.14817 0.0332993 0.326556)
(7.36435 0.0440198 0.300257)
(6.637 0.0487978 0.253917)
(6.01139 0.0488008 0.199425)
(5.48478 0.0457483 0.144585)
(5.04591 0.0405403 0.0959386)
(4.68819 0.0335876 0.0567611)
(4.40491 0.0252905 0.0271989)
(4.18596 0.0161149 0.00591762)
(4.01923 0.00651438 -0.00862525)
(3.89298 -0.00307452 -0.0177807)
(3.7974 -0.0122343 -0.0227344)
(3.72486 -0.0205956 -0.0245797)
(3.66956 -0.0278765 -0.0243072)
(3.62696 -0.0339061 -0.0227395)
(3.59352 -0.0386191 -0.0205083)
(3.56642 -0.0420437 -0.018046)
(3.54354 -0.0442798 -0.0156241)
(3.52335 -0.0454766 -0.0133924)
(3.50482 -0.0458045 -0.0114152)
(3.4873 -0.0454369 -0.00971174)
(3.47041 -0.0445378 -0.00826765)
(3.45395 -0.0432553 -0.00705936)
(3.43783 -0.0417171 -0.00605153)
(3.42201 -0.0400281 -0.00521056)
(3.4065 -0.0382705 -0.00450273)
(3.39132 -0.0365046 -0.00389829)
(3.37648 -0.0347736 -0.00337386)
(3.36199 -0.033106 -0.00290965)
(3.34788 -0.0315195 -0.00249403)
(3.33414 -0.0300234 -0.00211657)
(3.32079 -0.028621 -0.00177307)
(3.30781 -0.0273116 -0.00145954)
(3.29522 -0.0260917 -0.00117564)
(3.28299 -0.024956 -0.000921305)
(3.27111 -0.0238982 -0.000696869)
(3.25959 -0.022912 -0.000503232)
(3.2484 -0.0219906 -0.000339341)
(3.23753 -0.0211283 -0.00020533)
(3.22697 -0.0203194 -9.80899e-005)
(3.21672 -0.0195589 -1.61908e-005)
(3.20674 -0.0188424 4.49301e-005)
(3.19705 -0.018166 8.74581e-005)
(3.18761 -0.0175262 0.000115921)
(3.17842 -0.0169203 0.000132324)
(3.16947 -0.0163453 0.000140466)
(3.16075 -0.015799 0.000141989)
(3.15225 -0.0152793 0.000139897)
(3.14396 -0.0147847 0.00013525)
(3.13587 -0.0143132 0.000130129)
(3.12797 -0.0138637 0.000124714)
(3.12025 -0.0134344 0.000120265)
(3.11271 -0.0130242 0.000116208)
(3.10533 -0.0126315 0.000113272)
(3.09812 -0.0122549 0.000110389)
(3.09107 -0.0118932 0.000108383)
(3.08417 -0.0115453 0.000106263)
(3.07741 -0.0112103 0.000105346)
(3.07079 -0.0108874 0.000104668)
(3.0643 -0.010576 0.000105502)
(3.05794 -0.0102754 0.000106347)
(3.05171 -0.00998463 0.000108139)
(3.04559 -0.00970303 0.000108976)
(3.03958 -0.00942983 0.000109881)
(3.03368 -0.00916443 0.000109263)
(3.02789 -0.00890617 0.000108606)
(3.02219 -0.00865463 0.000106573)
(3.01659 -0.00840941 0.000104811)
(3.01109 -0.00817009 0.000102163)
(3.00566 -0.00793608 0.000100266)
(3.00032 -0.00770686 9.78122e-005)
(2.99506 -0.00748197 9.62166e-005)
(2.98988 -0.00726095 9.41701e-005)
(2.98476 -0.00704323 9.29622e-005)
(2.97972 -0.00682844 9.11619e-005)
(2.97473 -0.00661627 8.99569e-005)
(2.96981 -0.00640651 8.80633e-005)
(2.96495 -0.00619895 8.67215e-005)
(2.96014 -0.00599364 8.46181e-005)
(2.95539 -0.0057908 8.29167e-005)
(2.95069 -0.00559086 8.05072e-005)
(2.94603 -0.00539435 7.87025e-005)
(2.94142 -0.00520197 7.6423e-005)
(2.93685 -0.00501446 7.49182e-005)
(2.93232 -0.0048325 7.31306e-005)
(2.92783 -0.00465671 7.21043e-005)
(2.92338 -0.00448785 7.05152e-005)
(2.91895 -0.0043269 6.94028e-005)
(2.91456 -0.00417535 6.79439e-005)
(2.9102 -0.00403495 6.76436e-005)
(2.90587 -0.00390919 6.8243e-005)
(2.90155 -0.00379986 7.15721e-005)
(2.89728 -0.00371813 7.98093e-005)
(2.89295 -0.00365324 9.66928e-005)
(2.88879 -0.00366316 0.000115273)
(2.88399 -0.00364015 0.000202148)
(2.8812 -0.0038962 -0.000199191)
(2.87443 -0.00395173 0.000545003)
(9.60664 -0.0201438 0.149902)
(8.93629 -0.0425362 0.301307)
(8.20723 -0.0473774 0.332112)
(7.4255 -0.0444777 0.308349)
(6.69104 -0.0401257 0.26281)
(6.05498 -0.0359583 0.208228)
(5.51637 -0.0321573 0.153127)
(5.06453 -0.0291732 0.104149)
(4.69412 -0.0276841 0.0645031)
(4.40008 -0.0281416 0.03437)
(4.17336 -0.0306097 0.0125056)
(4.00195 -0.0347719 -0.00256706)
(3.8738 -0.040059 -0.0121746)
(3.77851 -0.0457952 -0.0174993)
(3.70769 -0.0513473 -0.0196236)
(3.65481 -0.0562313 -0.0195486)
(3.61479 -0.060145 -0.0181167)
(3.58366 -0.0629515 -0.015997)
(3.5584 -0.0646406 -0.0136549)
(3.53679 -0.0652946 -0.0113849)
(3.51727 -0.0650573 -0.00934817)
(3.49886 -0.0640846 -0.00760741)
(3.48097 -0.0625259 -0.00617667)
(3.46328 -0.0605208 -0.00502704)
(3.44565 -0.0581989 -0.00412174)
(3.42805 -0.0556792 -0.00341046)
(3.41049 -0.0530652 -0.00284842)
(3.39302 -0.0504384 -0.0023937)
(3.3757 -0.0478582 -0.00201234)
(3.35856 -0.0453656 -0.00168065)
(3.34164 -0.0429873 -0.00137963)
(3.32497 -0.0407384 -0.00110094)
(3.30857 -0.0386262 -0.000837245)
(3.29244 -0.0366516 -0.00058877)
(3.27659 -0.0348124 -0.000355165)
(3.26103 -0.0331029 -0.000139343)
(3.24575 -0.0315163 5.63988e-005)
(3.23076 -0.0300441 0.000230127)
(3.21605 -0.0286783 0.000379645)
(3.20162 -0.02741 0.000505458)
(3.18746 -0.0262316 0.000606898)
(3.17358 -0.0251352 0.000686903)
(3.15995 -0.0241138 0.000746482)
(3.14659 -0.0231606 0.000789762)
(3.13348 -0.0222699 0.000818435)
(3.12062 -0.021436 0.000836286)
(3.108 -0.020654 0.000844987)
(3.09562 -0.0199192 0.000847547)
(3.08347 -0.0192274 0.000845302)
(3.07154 -0.0185751 0.000840366)
(3.05983 -0.0179589 0.000833563)
(3.04834 -0.0173756 0.000826288)
(3.03705 -0.0168226 0.000818699)
(3.02596 -0.0162972 0.000811504)
(3.01507 -0.015797 0.000804148)
(3.00437 -0.0153198 0.000797162)
(2.99386 -0.0148634 0.000789644)
(2.98353 -0.0144262 0.00078237)
(2.97337 -0.0140065 0.00077439)
(2.96339 -0.0136029 0.000766882)
(2.95357 -0.0132142 0.000758734)
(2.94391 -0.0128393 0.00075125)
(2.93441 -0.012477 0.000743028)
(2.92506 -0.0121264 0.000735399)
(2.91586 -0.0117863 0.000726719)
(2.90681 -0.0114561 0.000718361)
(2.89789 -0.0111348 0.000708797)
(2.88911 -0.0108219 0.00069968)
(2.88046 -0.0105166 0.000689649)
(2.87194 -0.0102186 0.000680425)
(2.86354 -0.00992713 0.000670706)
(2.85527 -0.00964177 0.000662077)
(2.84711 -0.00936174 0.000653128)
(2.83906 -0.00908677 0.000645247)
(2.83112 -0.00881619 0.000637132)
(2.82328 -0.00854974 0.000630193)
(2.81555 -0.00828688 0.000623124)
(2.80792 -0.00802757 0.00061711)
(2.80039 -0.00777138 0.000610822)
(2.79294 -0.00751839 0.000605341)
(2.78559 -0.0072684 0.000599342)
(2.77832 -0.00702187 0.000593952)
(2.77114 -0.0067789 0.000588095)
(2.76404 -0.00654019 0.000582945)
(2.75702 -0.00630609 0.00057739)
(2.75008 -0.0060775 0.000572477)